Requirements:

1) Quantum ESPRESSO should be installed in the local machine. it should be show someting like this

$ /path/to/qe/qe-7.4.1/bin/pw.x

     Program PWSCF v.7.4.1 starts on 15Jul2025 at  9:33:25

     This program is part of the open-source Quantum ESPRESSO suite
     for quantum simulation of materials; please cite
         "P. Giannozzi et al., J. Phys.:Condens. Matter 21 395502 (2009);
         "P. Giannozzi et al., J. Phys.:Condens. Matter 29 465901 (2017);
         "P. Giannozzi et al., J. Chem. Phys. 152 154105 (2020);
          URL http://www.quantum-espresso.org",
     in publications or presentations arising from this work. More details at
     http://www.quantum-espresso.org/quote

     Serial version
     25103 MiB available memory on the printing compute node when the environment starts

     Waiting for input...
	 
2) ASE should be installed and added in path.

$ ase --version
ase-3.26.0b1

3) Python.

$ python --version
Python 3.12.3

