 argument  1 = CH4.b3lyp_geoptfreq.nw



============================== echo of input deck ==============================
echo

start molecule

title "CH4 | Equil.Geom+ freq | B3LYP/6-31G(d,p)"
charge 0

print low

geometry units angstroms print xyz autosym
C     -1.915401    0.916999    0.000000
H     -0.823202    0.916997    0.000001
H     -2.279466    1.624639   -0.748066
H     -2.279468    1.211023    0.986866
H     -2.279469   -0.084664   -0.238801
end

basis
  * library 6-31G**
end

dft
  xc b3lyp
  mult 1
end

task dft optimize
task dft freq
================================================================================


                                         
                                         


             Northwest Computational Chemistry Package (NWChem) 7.0.2
             --------------------------------------------------------


                    Environmental Molecular Sciences Laboratory
                       Pacific Northwest National Laboratory
                                Richland, WA 99352

                              Copyright (c) 1994-2020
                       Pacific Northwest National Laboratory
                            Battelle Memorial Institute

             NWChem is an open-source computational chemistry package
                        distributed under the terms of the
                      Educational Community License (ECL) 2.0
             A copy of the license is included with this distribution
                              in the LICENSE.TXT file

                                  ACKNOWLEDGMENT
                                  --------------

            This software and its documentation were developed at the
            EMSL at Pacific Northwest National Laboratory, a multiprogram
            national laboratory, operated for the U.S. Department of Energy
            by Battelle under Contract Number DE-AC05-76RL01830. Support
            for this work was provided by the Department of Energy Office
            of Biological and Environmental Research, Office of Basic
            Energy Sciences, and the Office of Advanced Scientific Computing.


           Job information
           ---------------

    hostname        = DESKTOP-7OTLCGO
    program         = nwchem
    date            = Tue Aug 26 15:44:02 2025

    compiled        = Sat_Apr_09_17:12:10_2022
    source          = /build/nwchem-f1f4gx/nwchem-7.0.2/build-openmpi
    nwchem branch   = 7.0.2
    nwchem revision = N/A
    ga revision     = 5.8.1
    use scalapack   = T
    input           = CH4.b3lyp_geoptfreq.nw
    prefix          = molecule.
    data base       = ./molecule.db
    status          = startup
    nproc           =        8
    time left       =     -1s



           Memory information
           ------------------

    heap     =   13107196 doubles =    100.0 Mbytes
    stack    =   13107201 doubles =    100.0 Mbytes
    global   =   26214400 doubles =    200.0 Mbytes (distinct from heap & stack)
    total    =   52428797 doubles =    400.0 Mbytes
    verify   = yes
    hardfail = no 


           Directory information
           ---------------------

  0 permanent = .
  0 scratch   = .




                                NWChem Input Module
                                -------------------


                     CH4 | Equil.Geom+ freq | B3LYP/6-31G(d,p)
                     -----------------------------------------

 Scaling coordinates for geometry "geometry" by  1.889725989
 (inverse scale =  0.529177249)

  WARNING: autosym failed! 

          ------
          auto-z
          ------
  Looking for out-of-plane bends
  no constraints, skipping    0.0000000000000000     
  no constraints, skipping    0.0000000000000000     


                             Geometry "geometry" -> ""
                             -------------------------

 Output coordinates in angstroms (scale by  1.889725989 to convert to a.u.)

  No.       Tag          Charge          X              Y              Z
 ---- ---------------- ---------- -------------- -------------- --------------
    1 C                    6.0000     0.00000010     0.00000010     0.00000000
    2 H                    1.0000     1.09219910    -0.00000190     0.00000100
    3 H                    1.0000    -0.36406490     0.70764010    -0.74806600
    4 H                    1.0000    -0.36406690     0.29402410     0.98686600
    5 H                    1.0000    -0.36406790    -1.00166290    -0.23880100

      Atomic Mass 
      ----------- 

      C                 12.000000
      H                  1.007825


 Effective nuclear repulsion energy (a.u.)      13.4083341222

            Nuclear Dipole moment (a.u.) 
            ----------------------------
        X                 Y               Z
 ---------------- ---------------- ----------------
    -0.0000000000    -0.0000000000     0.0000000000



                                Z-matrix (autoz)
                                -------- 

 Units are Angstrom for bonds and degrees for angles

      Type          Name      I     J     K     L     M      Value
      ----------- --------  ----- ----- ----- ----- ----- ----------
    1 Stretch                  1     2                       1.09220
    2 Stretch                  1     3                       1.09220
    3 Stretch                  1     4                       1.09220
    4 Stretch                  1     5                       1.09220
    5 Bend                     2     1     3               109.47124
    6 Bend                     2     1     4               109.47123
    7 Bend                     2     1     5               109.47121
    8 Bend                     3     1     4               109.47124
    9 Bend                     3     1     5               109.47122
   10 Bend                     4     1     5               109.47118


            XYZ format geometry
            -------------------
     5
 geometry
 C                     0.00000010     0.00000010     0.00000000
 H                     1.09219910    -0.00000190     0.00000100
 H                    -0.36406490     0.70764010    -0.74806600
 H                    -0.36406690     0.29402410     0.98686600
 H                    -0.36406790    -1.00166290    -0.23880100

 ==============================================================================
                                internuclear distances
 ------------------------------------------------------------------------------
       center one      |      center two      | atomic units |  angstroms
 ------------------------------------------------------------------------------
    2 H                |   1 C                |     2.06396  |     1.09220
    3 H                |   1 C                |     2.06396  |     1.09220
    4 H                |   1 C                |     2.06396  |     1.09220
    5 H                |   1 C                |     2.06396  |     1.09220
 ------------------------------------------------------------------------------
                         number of included internuclear distances:          4
 ==============================================================================



 ==============================================================================
                                 internuclear angles
 ------------------------------------------------------------------------------
        center 1       |       center 2       |       center 3       |  degrees
 ------------------------------------------------------------------------------
    2 H                |   1 C                |   3 H                |   109.47
    2 H                |   1 C                |   4 H                |   109.47
    2 H                |   1 C                |   5 H                |   109.47
    3 H                |   1 C                |   4 H                |   109.47
    3 H                |   1 C                |   5 H                |   109.47
    4 H                |   1 C                |   5 H                |   109.47
 ------------------------------------------------------------------------------
                            number of included internuclear angles:          6
 ==============================================================================





 Summary of "ao basis" -> "" (cartesian)
 ------------------------------------------------------------------------------
       Tag                 Description            Shells   Functions and Types
 ---------------- ------------------------------  ------  ---------------------
 *                          6-31G**                   on all atoms 




                           NWChem Geometry Optimization
                           ----------------------------




                     CH4 | Equil.Geom+ freq | B3LYP/6-31G(d,p)


  no constraints, skipping    0.0000000000000000     
 maximum gradient threshold         (gmax) =   0.000450
 rms gradient threshold             (grms) =   0.000300
 maximum cartesian step threshold   (xmax) =   0.001800
 rms cartesian step threshold       (xrms) =   0.001200
 fixed trust radius                (trust) =   0.300000
 maximum step size to saddle      (sadstp) =   0.100000
 energy precision                  (eprec) =   5.0D-06
 maximum number of steps          (nptopt) =   20
 initial hessian option           (inhess) =    0
 line search option               (linopt) =    1
 hessian update option            (modupd) =    1
 saddle point option              (modsad) =    0
 initial eigen-mode to follow     (moddir) =    0
 initial variable to follow       (vardir) =    0
 follow first negative mode     (firstneg) =    T
 apply conjugacy                    (opcg) =    F
 source of zmatrix                         =   autoz   


          -------------------
          Energy Minimization
          -------------------


 Names of Z-matrix variables 
    1              2              3              4              5         
    6              7              8              9             10         

 Variables with the same non-blank name are constrained to be equal


 Using diagonal initial Hessian 
 Scaling for Hessian diagonals: bonds = 1.00  angles = 0.25  torsions = 0.10

          --------
          Step   0
          --------

                                 NWChem DFT Module
                                 -----------------


                     CH4 | Equil.Geom+ freq | B3LYP/6-31G(d,p)


                      Basis "ao basis" -> "ao basis" (cartesian)
                      -----
  C (Carbon)
  ----------
            Exponent  Coefficients 
       -------------- ---------------------------------------------------------
  1 S  3.04752490E+03  0.001835
  1 S  4.57369510E+02  0.014037
  1 S  1.03948690E+02  0.068843
  1 S  2.92101550E+01  0.232184
  1 S  9.28666300E+00  0.467941
  1 S  3.16392700E+00  0.362312

  2 S  7.86827240E+00 -0.119332
  2 S  1.88128850E+00 -0.160854
  2 S  5.44249300E-01  1.143456

  3 P  7.86827240E+00  0.068999
  3 P  1.88128850E+00  0.316424
  3 P  5.44249300E-01  0.744308

  4 S  1.68714400E-01  1.000000

  5 P  1.68714400E-01  1.000000

  6 D  8.00000000E-01  1.000000

  H (Hydrogen)
  ------------
            Exponent  Coefficients 
       -------------- ---------------------------------------------------------
  1 S  1.87311370E+01  0.033495
  1 S  2.82539370E+00  0.234727
  1 S  6.40121700E-01  0.813757

  2 S  1.61277800E-01  1.000000

  3 P  1.10000000E+00  1.000000



 Summary of "ao basis" -> "ao basis" (cartesian)
 ------------------------------------------------------------------------------
       Tag                 Description            Shells   Functions and Types
 ---------------- ------------------------------  ------  ---------------------
 C                          6-31G**                  6       15   3s2p1d
 H                          6-31G**                  3        5   2s1p



  Caching 1-el integrals 
   Time after variat. SCF:      1.0
   Time prior to 1st pass:      1.0


         Total DFT energy =      -40.524014283810
      One electron energy =      -79.797537357201
           Coulomb energy =       32.772474347168
    Exchange-Corr. energy =       -6.907285395953
 Nuclear repulsion energy =       13.408334122175

 Numeric. integr. density =       10.000000942711

     Total iterative time =      0.3s




                         DFT ENERGY GRADIENTS

    atom               coordinates                        gradient
                 x          y          z           x          y          z
   1 C       0.000000   0.000000   0.000000    0.000000  -0.000001  -0.000001
   2 H       2.063957  -0.000004   0.000002    0.000211  -0.000001  -0.000000
   3 H      -0.687983   1.337246  -1.413640   -0.000070   0.000137  -0.000145
   4 H      -0.687987   0.555625   1.864906   -0.000070   0.000058   0.000191
   5 H      -0.687989  -1.892868  -0.451268   -0.000071  -0.000193  -0.000046

  no constraints, skipping    0.0000000000000000     

@ Step       Energy      Delta E   Gmax     Grms     Xrms     Xmax   Walltime
@ ---- ---------------- -------- -------- -------- -------- -------- --------
@    0     -40.52401428  0.0D+00  0.00021  0.00013  0.00000  0.00000      1.3
                                     ok       ok       ok       ok  

  no constraints, skipping    0.0000000000000000     
  no constraints, skipping    0.0000000000000000     
  no constraints, skipping    0.0000000000000000     

                                 NWChem DFT Module
                                 -----------------


                     CH4 | Equil.Geom+ freq | B3LYP/6-31G(d,p)



  Caching 1-el integrals 
   Time after variat. SCF:      1.3
   Time prior to 1st pass:      1.3


         Total DFT energy =      -40.524014503258
      One electron energy =      -79.805871549483
           Coulomb energy =       32.777408598259
    Exchange-Corr. energy =       -6.907862850990
 Nuclear repulsion energy =       13.412311298956

 Numeric. integr. density =       10.000000930700

     Total iterative time =      0.1s


 Line search: 
     step= 1.00 grad=-5.2D-07 hess= 3.0D-07 energy=    -40.524015 mode=accept  
 new step= 1.00                   predicted energy=    -40.524015
  no constraints, skipping    0.0000000000000000     
  no constraints, skipping    0.0000000000000000     
  no constraints, skipping    0.0000000000000000     

          --------
          Step   1
          --------

                                 NWChem DFT Module
                                 -----------------


                     CH4 | Equil.Geom+ freq | B3LYP/6-31G(d,p)




  The DFT is already converged 

         Total DFT energy =    -40.524014503258



                         DFT ENERGY GRADIENTS

    atom               coordinates                        gradient
                 x          y          z           x          y          z
   1 C      -0.000000   0.000001   0.000000    0.000000  -0.000000  -0.000000
   2 H       2.063344  -0.000002   0.000002   -0.000005  -0.000000  -0.000000
   3 H      -0.687778   1.336849  -1.413222    0.000002  -0.000004   0.000003
   4 H      -0.687781   0.555459   1.864354    0.000002  -0.000001  -0.000005
   5 H      -0.687786  -1.892307  -0.451134    0.000001   0.000005   0.000002

  no constraints, skipping    0.0000000000000000     

  Step       Energy      Delta E   Gmax     Grms     Xrms     Xmax   Walltime
  ---- ---------------- -------- -------- -------- -------- -------- --------
@    1     -40.52401450 -2.2D-07  0.00001  0.00000  0.00032  0.00061      1.5
                                     ok       ok       ok       ok  


      ----------------------
      Optimization converged
      ----------------------


  Step       Energy      Delta E   Gmax     Grms     Xrms     Xmax   Walltime
  ---- ---------------- -------- -------- -------- -------- -------- --------
@    1     -40.52401450 -2.2D-07  0.00001  0.00000  0.00032  0.00061      1.5
                                     ok       ok       ok       ok  



                         Geometry "geometry" -> "geometry"
                         ---------------------------------

 Output coordinates in angstroms (scale by  1.889725989 to convert to a.u.)

  No.       Tag          Charge          X              Y              Z
 ---- ---------------- ---------- -------------- -------------- --------------
    1 C                    6.0000    -0.00000010     0.00000055     0.00000022
    2 H                    1.0000     1.09187491    -0.00000112     0.00000119
    3 H                    1.0000    -0.36395636     0.70743004    -0.74784501
    4 H                    1.0000    -0.36395831     0.29393602     0.98657362
    5 H                    1.0000    -0.36396064    -1.00136600    -0.23873002

      Atomic Mass 
      ----------- 

      C                 12.000000
      H                  1.007825


 Effective nuclear repulsion energy (a.u.)      13.4123112990

            Nuclear Dipole moment (a.u.) 
            ----------------------------
        X                 Y               Z
 ---------------- ---------------- ----------------
    -0.0000019074     0.0000042744     0.0000020622


                Final and change from initial internal coordinates
                --------------------------------------------------



                                Z-matrix (autoz)
                                -------- 

 Units are Angstrom for bonds and degrees for angles

      Type          Name      I     J     K     L     M      Value       Change
      ----------- --------  ----- ----- ----- ----- ----- ---------- ----------
    1 Stretch                  1     2                       1.09188   -0.00032
    2 Stretch                  1     3                       1.09188   -0.00032
    3 Stretch                  1     4                       1.09187   -0.00032
    4 Stretch                  1     5                       1.09188   -0.00032
    5 Bend                     2     1     3               109.47118   -0.00006
    6 Bend                     2     1     4               109.47119   -0.00004
    7 Bend                     2     1     5               109.47124    0.00003
    8 Bend                     3     1     4               109.47140    0.00015
    9 Bend                     3     1     5               109.47119   -0.00004
   10 Bend                     4     1     5               109.47112   -0.00005



                                NWChem Input Module
                                -------------------




                   NWChem Nuclear Hessian and Frequency Analysis
                   ---------------------------------------------



                              NWChem Analytic Hessian
                              -----------------------


                                 NWChem DFT Module
                                 -----------------


                     CH4 | Equil.Geom+ freq | B3LYP/6-31G(d,p)



  Caching 1-el integrals 
   Time after variat. SCF:      1.5
   Time prior to 1st pass:      1.5


         Total DFT energy =      -40.524013944002
      One electron energy =      -79.805124589272
           Coulomb energy =       32.776567442177
    Exchange-Corr. energy =       -6.907768095863
 Nuclear repulsion energy =       13.412311298956

 Numeric. integr. density =       10.000000082466

     Total iterative time =      0.1s



 HESSIAN: the one electron contributions are done in       0.0s


 HESSIAN: 2-el 1st deriv. term done in                     0.0s


 HESSIAN: 2-el 2nd deriv. term done in                     0.0s

  stpr_wrt_fd_from_sq: overwrite of existing file:./molecule.hess
 stpr_wrt_fd_dipole: overwrite of existing file./molecule.fd_ddipole

 HESSIAN: the two electron contributions are done in       0.7s

 SCF residual:    1.6768356617948092E-006
 HESSIAN: the CPHF contributions are done
  stpr_wrt_fd_from_sq: overwrite of existing file:./molecule.hess
 stpr_wrt_fd_dipole: overwrite of existing file./molecule.fd_ddipole

 Derivative Dipole

  
  
 X vector of derivative dipole (au) [debye/angstrom]
 d_dipole_x/<atom=   1,x> =     0.0045     [    0.0215]
 d_dipole_x/<atom=   1,y> =    -0.0000     [   -0.0000]
 d_dipole_x/<atom=   1,z> =    -0.0000     [   -0.0000]
 d_dipole_x/<atom=   2,x> =    -0.1439     [   -0.6910]
 d_dipole_x/<atom=   2,y> =     0.0000     [    0.0000]
 d_dipole_x/<atom=   2,z> =    -0.0000     [   -0.0000]
 d_dipole_x/<atom=   3,x> =     0.0465     [    0.2232]
 d_dipole_x/<atom=   3,y> =     0.0462     [    0.2221]
 d_dipole_x/<atom=   3,z> =    -0.0489     [   -0.2348]
 d_dipole_x/<atom=   4,x> =     0.0465     [    0.2232]
 d_dipole_x/<atom=   4,y> =     0.0192     [    0.0923]
 d_dipole_x/<atom=   4,z> =     0.0645     [    0.3098]
 d_dipole_x/<atom=   5,x> =     0.0465     [    0.2232]
 d_dipole_x/<atom=   5,y> =    -0.0655     [   -0.3144]
 d_dipole_x/<atom=   5,z> =    -0.0156     [   -0.0750]
  
 Y vector of derivative dipole (au) [debye/angstrom]
 d_dipole_y/<atom=   1,x> =    -0.0000     [   -0.0000]
 d_dipole_y/<atom=   1,y> =     0.0045     [    0.0214]
 d_dipole_y/<atom=   1,z> =    -0.0000     [   -0.0000]
 d_dipole_y/<atom=   2,x> =     0.0000     [    0.0000]
 d_dipole_y/<atom=   2,y> =     0.0703     [    0.3375]
 d_dipole_y/<atom=   2,z> =    -0.0000     [   -0.0000]
 d_dipole_y/<atom=   3,x> =     0.0462     [    0.2221]
 d_dipole_y/<atom=   3,y> =    -0.0196     [   -0.0943]
 d_dipole_y/<atom=   3,z> =     0.0950     [    0.4564]
 d_dipole_y/<atom=   4,x> =     0.0192     [    0.0923]
 d_dipole_y/<atom=   4,y> =     0.0547     [    0.2629]
 d_dipole_y/<atom=   4,z> =    -0.0521     [   -0.2502]
 d_dipole_y/<atom=   5,x> =    -0.0655     [   -0.3144]
 d_dipole_y/<atom=   5,y> =    -0.1098     [   -0.5276]
 d_dipole_y/<atom=   5,z> =    -0.0429     [   -0.2062]
  
 Z vector of derivative dipole (au) [debye/angstrom]
 d_dipole_z/<atom=   1,x> =    -0.0000     [   -0.0000]
 d_dipole_z/<atom=   1,y> =     0.0000     [    0.0000]
 d_dipole_z/<atom=   1,z> =     0.0045     [    0.0214]
 d_dipole_z/<atom=   2,x> =     0.0000     [    0.0000]
 d_dipole_z/<atom=   2,y> =    -0.0000     [   -0.0000]
 d_dipole_z/<atom=   2,z> =     0.0703     [    0.3375]
 d_dipole_z/<atom=   3,x> =    -0.0489     [   -0.2348]
 d_dipole_z/<atom=   3,y> =     0.0950     [    0.4564]
 d_dipole_z/<atom=   3,z> =    -0.0302     [   -0.1450]
 d_dipole_z/<atom=   4,x> =     0.0645     [    0.3098]
 d_dipole_z/<atom=   4,y> =    -0.0521     [   -0.2502]
 d_dipole_z/<atom=   4,z> =    -0.1046     [   -0.5022]
 d_dipole_z/<atom=   5,x> =    -0.0156     [   -0.0750]
 d_dipole_z/<atom=   5,y> =    -0.0429     [   -0.2062]
 d_dipole_z/<atom=   5,z> =     0.0600     [    0.2883]
  
  
 HESSIAN: the Hessian is done


  Vibrational analysis via the FX method 

  See chapter 2 in "Molecular Vibrations" by Wilson, Decius and Cross

  Vib: Default input used 

  Nuclear Hessian passed symmetry test 



 ---------------------------- Atom information ----------------------------
     atom    #        X              Y              Z            mass
 --------------------------------------------------------------------------
    C        1 -1.9250868D-07  1.0438552D-06  4.1244441D-07  1.2000000D+01
    H        2  2.0633444D+00 -2.1169825D-06  2.2432955D-06  1.0078250D+00
    H        3 -6.8777778D-01  1.3368489D+00 -1.4132222D+00  1.0078250D+00
    H        4 -6.8778148D-01  5.5545854D-01  1.8643538D+00  1.0078250D+00
    H        5 -6.8778588D-01 -1.8923073D+00 -4.5113432D-01  1.0078250D+00
 --------------------------------------------------------------------------




          ----------------------------------------------------
          MASS-WEIGHTED NUCLEAR HESSIAN (Hartree/Bohr/Bohr/Kamu)
          ----------------------------------------------------


               1            2            3            4            5            6            7            8            9           10
   ----- ----- ----- ----- -----
    1    4.62695D+01
    2   -7.64690D-05  4.62692D+01
    3   -7.01178D-05  8.34900D-06  4.62696D+01
    4   -9.28329D+01  2.47023D-04  1.28243D-05  3.45721D+02
    5    1.34350D-04 -1.34555D+01  4.16228D-05 -5.59806D-04  4.53883D+01
    6   -9.92704D-05  4.81626D-05 -1.34555D+01  2.99329D-04 -1.01796D-05  4.53884D+01
    7   -2.22752D+01  1.71427D+01 -1.81221D+01 -8.46280D+00  2.18870D+01 -2.31373D+01  7.87583D+01
    8    1.71428D+01 -4.67762D+01  3.52244D+01 -6.69013D-01  2.30323D-01 -2.10292D+00 -6.48613D+01  1.71461D+02
    9   -1.81222D+01  3.52242D+01 -5.06923D+01  7.07206D-01 -2.10295D+00  4.64147D-01  6.85668D+01 -1.33275D+02  1.86277D+02
   10   -2.22753D+01  7.12292D+00  2.39074D+01 -8.46288D+00  9.09405D+00  3.05234D+01  3.28396D+00 -4.74013D+00 -1.08705D+01  7.87587D+01
   11    7.12296D+00 -1.92081D+01 -1.93078D+01 -2.78080D-01 -1.41554D+00  1.15267D+00 -9.13474D+00  6.83696D+00  1.96496D+01 -2.69501D+01
   12    2.39076D+01 -1.93079D+01 -7.82609D+01 -9.33295D-01  1.15272D+00  2.11010D+00  7.56280D+00 -7.14966D+00 -1.78890D+01 -9.04561D+01
   13   -2.22754D+01 -2.42657D+01 -5.78511D+00 -8.46285D+00 -3.09809D+01 -7.38601D+00  3.28401D+00  1.11168D+01  4.12953D+00  3.28396D+00
   14   -2.42658D+01 -8.02180D+01 -1.59166D+01  9.47090D-01  2.22702D+00  9.50254D-01 -7.04411D+00 -1.71205D+01 -5.81782D+00 -1.98248D+00
   15   -5.78508D+00 -1.59164D+01 -1.72503D+01  2.25845D-01  9.50250D-01 -1.53245D+00  9.54036D+00  2.09812D+01  6.06814D+00 -1.16923D+01


              11           12           13           14           15
   ----- ----- ----- ----- -----
   11    6.71535D+01
   12    7.30532D+01  2.90586D+02
   13    1.17843D+01  1.33040D+00  7.87589D+01
   14   -6.29487D+00 -4.31576D-01  9.18117D+01  2.97991D+02
   15   -2.72313D+01 -4.75725D+00  2.18883D+01  6.02214D+01  5.97458D+01



          -------------------------------------------------
          NORMAL MODE EIGENVECTORS IN CARTESIAN COORDINATES
          -------------------------------------------------
                 (Frequencies expressed in cm-1)

                    1           2           3           4           5           6
 
 Frequency         -3.61       -3.30       -2.65       -0.41        1.17        1.48
 
           1    -0.00175     0.00104    -0.00535    -0.07983    -0.18148     0.15178
           2     0.00325    -0.01022     0.01352    -0.18836    -0.04800    -0.15587
           3     0.00079    -0.01023     0.01918     0.14323    -0.16416    -0.12018
           4    -0.00175     0.00104    -0.00535    -0.07983    -0.18147     0.15178
           5    -0.07893     0.52591     0.29250    -0.19488    -0.05237    -0.15931
           6    -0.56207     0.02321    -0.21143     0.14213    -0.17558    -0.14925
           7    -0.33401    -0.32342    -0.34406    -0.07636    -0.18647     0.13410
           8     0.18138     0.00755    -0.41334    -0.18312    -0.06824    -0.19045
           9     0.33101     0.16448    -0.21977     0.14649    -0.18088    -0.14428
          10     0.52895    -0.17350     0.12792    -0.07709    -0.16997     0.17898
          11    -0.16823    -0.44811     0.36098    -0.19024    -0.01791    -0.10761
          12     0.24766     0.05585    -0.03517     0.14480    -0.16888    -0.12453
          13    -0.20017     0.50004     0.20008    -0.08605    -0.18798     0.14228
          14     0.07876    -0.12621    -0.18605    -0.18521    -0.05347    -0.16613
          15    -0.01344    -0.28445     0.54311     0.13948    -0.13129    -0.06266

                    7           8           9          10          11          12
 
 Frequency       1356.05     1356.05     1356.05     1578.52     1578.52     3047.36
 
           1    -0.00411    -0.07275    -0.08882     0.00000    -0.00000     0.00000
           2    -0.11249     0.02032    -0.01144    -0.00000    -0.00000     0.00000
           3    -0.02295    -0.08656     0.07197     0.00000    -0.00000     0.00000
           4    -0.00310    -0.05482    -0.06692     0.00000     0.00000     0.49805
           5     0.54467    -0.09837     0.05538     0.47276     0.15671    -0.00000
           6     0.11112     0.41911    -0.34844     0.15671    -0.47276     0.00000
           7     0.12396     0.17190     0.48057     0.19897     0.42533    -0.16602
           8     0.34240     0.25218    -0.04285    -0.27939     0.25665     0.32269
           9     0.32495     0.04852    -0.24461    -0.36112     0.03579    -0.34113
          10     0.11250     0.44270     0.25928     0.26886    -0.38498    -0.16601
          11     0.46988    -0.17142     0.19328    -0.36419    -0.31216     0.13407
          12    -0.13989     0.17395     0.11441     0.20769    -0.04902     0.45001
          13    -0.18443     0.30648     0.38460    -0.46784    -0.04035    -0.16603
          14    -0.01751    -0.22432    -0.06963     0.17082    -0.10120    -0.45679
          15    -0.02291     0.38908    -0.37824    -0.00327     0.48600    -0.10890

                   13          14          15
 
 Frequency       3163.25     3163.26     3163.26
 
           1    -0.00749    -0.05606     0.06751
           2    -0.08479    -0.01285    -0.02008
           3     0.02263    -0.06670    -0.05287
           4     0.06984     0.52269    -0.62946
           5    -0.01668    -0.00253    -0.00395
           6     0.00445    -0.01312    -0.01040
           7    -0.21707     0.16682     0.01551
           8     0.40238    -0.34822    -0.00828
           9    -0.43854     0.35232    -0.00583
          10    -0.00110    -0.15397    -0.22690
          11    -0.01699     0.11291     0.19003
          12     0.00343     0.37434     0.64066
          13     0.23751     0.13195     0.03698
          14     0.64082     0.39086     0.06126
          15     0.16120     0.08066     0.00514
  
  
 ----------------------------------------------------------------------------
 Normal Eigenvalue ||                 Infra Red Intensities
  Mode   [cm**-1]  || [atomic units] [(debye/angs)**2] [(KM/mol)] [arbitrary]
 ------ ---------- || -------------- ----------------- ---------- -----------
    1       -3.606 ||    0.000000           0.000         0.000       0.000
    2       -3.304 ||    0.000000           0.000         0.000       0.000
    3       -2.649 ||    0.000000           0.000         0.000       0.000
    4       -0.412 ||    0.000000           0.000         0.000       0.000
    5        1.170 ||    0.000000           0.000         0.000       0.000
    6        1.482 ||    0.000000           0.000         0.000       0.000
    7     1356.051 ||    0.014474           0.334        14.110      17.893
    8     1356.053 ||    0.014474           0.334        14.110      17.893
    9     1356.054 ||    0.014474           0.334        14.110      17.893
   10     1578.517 ||    0.000000           0.000         0.000       0.000
   11     1578.517 ||    0.000000           0.000         0.000       0.000
   12     3047.355 ||    0.000000           0.000         0.000       0.000
   13     3163.246 ||    0.025972           0.599        25.319      32.107
   14     3163.256 ||    0.025972           0.599        25.318      32.106
   15     3163.261 ||    0.025972           0.599        25.319      32.107
 ----------------------------------------------------------------------------





        Vibrational analysis via the FX method 
  --- with translations and rotations projected out ---
  --- via the Eckart algorithm                      ---

          --------------------------------------------------------
          MASS-WEIGHTED PROJECTED HESSIAN (Hartree/Bohr/Bohr/Kamu)
          --------------------------------------------------------


               1            2            3            4            5            6            7            8            9           10
   ----- ----- ----- ----- -----
    1    4.62695D+01
    2   -6.50718D-05  4.62692D+01
    3   -6.88691D-05  7.23692D-06  4.62696D+01
    4   -9.28330D+01  2.45452D-04  1.00525D-05  3.45720D+02
    5    1.90166D-04 -1.34556D+01  2.47561D-05 -6.06334D-04  4.53886D+01
    6   -4.55550D-05  3.55471D-05 -1.34556D+01  2.34337D-04 -6.28536D-05  4.53886D+01
    7   -2.22752D+01  1.71427D+01 -1.81221D+01 -8.46287D+00  2.18868D+01 -2.31372D+01  7.87583D+01
    8    1.71429D+01 -4.67762D+01  3.52243D+01 -6.69067D-01  2.30203D-01 -2.10297D+00 -6.48612D+01  1.71461D+02
    9   -1.81222D+01  3.52243D+01 -5.06924D+01  7.07202D-01 -2.10295D+00  4.64085D-01  6.85668D+01 -1.33275D+02  1.86277D+02
   10   -2.22754D+01  7.12295D+00  2.39075D+01 -8.46286D+00  9.09395D+00  3.05231D+01  3.28401D+00 -4.74007D+00 -1.08705D+01  7.87590D+01
   11    7.12297D+00 -1.92081D+01 -1.93078D+01 -2.78184D-01 -1.41566D+00  1.15265D+00 -9.13470D+00  6.83684D+00  1.96495D+01 -2.69501D+01
   12    2.39076D+01 -1.93079D+01 -7.82609D+01 -9.33298D-01  1.15268D+00  2.10996D+00  7.56276D+00 -7.14973D+00 -1.78889D+01 -9.04561D+01
   13   -2.22754D+01 -2.42657D+01 -5.78512D+00 -8.46285D+00 -3.09808D+01 -7.38598D+00  3.28400D+00  1.11168D+01  4.12951D+00  3.28392D+00
   14   -2.42658D+01 -8.02180D+01 -1.59166D+01  9.47010D-01  2.22699D+00  9.50262D-01 -7.04410D+00 -1.71205D+01 -5.81776D+00 -1.98245D+00
   15   -5.78510D+00 -1.59164D+01 -1.72502D+01  2.25828D-01  9.50245D-01 -1.53250D+00  9.54038D+00  2.09812D+01  6.06812D+00 -1.16923D+01


              11           12           13           14           15
   ----- ----- ----- ----- -----
   11    6.71537D+01
   12    7.30530D+01  2.90586D+02
   13    1.17843D+01  1.33042D+00  7.87589D+01
   14   -6.29489D+00 -4.31609D-01  9.18117D+01  2.97991D+02
   15   -2.72312D+01 -4.75730D+00  2.18883D+01  6.02215D+01  5.97458D+01

 center of mass
 --------------
 x =  -0.00000019 y =   0.00000066 z =   0.00000028

 moments of inertia (a.u.)
 ------------------
          11.441898220340          -0.000008877635          -0.000003251073
          -0.000008877635          11.441892930497           0.000008569216
          -0.000003251073           0.000008569216          11.441885053274

 Rotational Constants
 --------------------
 A=   5.261389 cm-1  (  7.569796 K)
 B=   5.261384 cm-1  (  7.569789 K)
 C=   5.261376 cm-1  (  7.569777 K)


 Temperature                      =   298.15K
 frequency scaling parameter      =   1.0000

 Zero-Point correction to Energy  =   28.238 kcal/mol  (  0.045000 au)
 Thermal correction to Energy     =   30.036 kcal/mol  (  0.047865 au)
 Thermal correction to Enthalpy   =   30.628 kcal/mol  (  0.048809 au)

 Total Entropy                    =   49.389 cal/mol-K
   - Translational                =   34.246 cal/mol-K (mol. weight =  16.0313)
   - Rotational                   =   15.061 cal/mol-K (symmetry #  =        1)
   - Vibrational                  =    0.082 cal/mol-K

 Cv (constant volume heat capacity) =    6.441 cal/mol-K
   - Translational                  =    2.979 cal/mol-K
   - Rotational                     =    2.979 cal/mol-K
   - Vibrational                    =    0.482 cal/mol-K



          -------------------------------------------------
          NORMAL MODE EIGENVECTORS IN CARTESIAN COORDINATES
          -------------------------------------------------
             (Projected Frequencies expressed in cm-1)

                    1           2           3           4           5           6
 
 P.Frequency       -0.00        0.00        0.00        0.00        0.00        0.00
 
           1     0.02720     0.02599    -0.24557    -0.00144    -0.02094    -0.01475
           2     0.09721     0.00743     0.00967     0.21891     0.04469    -0.05350
           3    -0.03949     0.19768     0.00128     0.00105     0.13026     0.06906
           4     0.02720     0.02599    -0.24557    -0.00144    -0.02094    -0.01475
           5    -0.40631    -0.05981    -0.05229     0.50241    -0.07407     0.07190
           6    -0.01045     0.55724     0.09045     0.02990    -0.32962    -0.07824
           7     0.37332     0.31582    -0.14436    -0.16536    -0.25897    -0.19688
           8     0.41454     0.01021     0.03270     0.17292    -0.03583     0.27217
           9     0.09224     0.05926    -0.02619     0.03732     0.16993     0.46577
          10     0.13651    -0.28079    -0.30946    -0.10383     0.42655     0.08459
          11     0.06783     0.05575     0.02719     0.06041     0.24273    -0.58007
          12     0.00959     0.07012    -0.02750     0.01050     0.23634     0.26259
          13    -0.42822     0.04293    -0.28290     0.26487    -0.23041     0.06805
          14     0.31277     0.02358     0.03108     0.13989     0.04594     0.02200
          15    -0.24934     0.10412    -0.03162    -0.07352     0.44438    -0.37388

                    7           8           9          10          11          12
 
 P.Frequency     1356.05     1356.05     1356.05     1578.52     1578.52     3047.36
 
           1    -0.01517    -0.01218    -0.11322     0.00000    -0.00000     0.00000
           2    -0.10395     0.04813     0.00875    -0.00000    -0.00000     0.00000
           3    -0.04650    -0.10360     0.01738     0.00000    -0.00000     0.00000
           4    -0.01143    -0.00918    -0.08531     0.00000     0.00000     0.49805
           5     0.50331    -0.23302    -0.04238     0.47276     0.15671    -0.00000
           6     0.22516     0.50163    -0.08414     0.15670    -0.47276     0.00000
           7     0.13024    -0.13910     0.48944     0.19897     0.42533    -0.16602
           8     0.39295     0.15198     0.07185    -0.27939     0.25666     0.32269
           9     0.34182     0.09463    -0.20490    -0.36112     0.03579    -0.34113
          10     0.19459     0.20184     0.44414     0.26886    -0.38498    -0.16601
          11     0.40548    -0.34839     0.04167    -0.36419    -0.31216     0.13407
          12    -0.10318     0.11439     0.19796     0.20769    -0.04902     0.45001
          13    -0.13274     0.09148     0.49987    -0.46784    -0.04035    -0.16603
          14    -0.06402    -0.14361    -0.17536     0.17082    -0.10120    -0.45679
          15     0.08990     0.52295    -0.11584    -0.00327     0.48600    -0.10890

                   13          14          15
 
 P.Frequency     3163.25     3163.26     3163.26
 
           1    -0.00857    -0.05794     0.06577
           2    -0.08514    -0.01022    -0.02009
           3     0.02085    -0.06554    -0.05502
           4     0.07991     0.54025    -0.61323
           5    -0.01675    -0.00201    -0.00395
           6     0.00410    -0.01289    -0.01082
           7    -0.21299     0.17133     0.02164
           8     0.39397    -0.35719    -0.02085
           9    -0.43009     0.36257     0.00704
          10    -0.00558    -0.14676    -0.23157
          11    -0.01361     0.10731     0.19351
          12     0.01465     0.35402     0.65195
          13     0.24070     0.12510     0.04002
          14     0.65013     0.37354     0.07054
          15     0.16309     0.07664     0.00694
  
  
 ----------------------------------------------------------------------------
 Normal Eigenvalue ||           Projected Infra Red Intensities
  Mode   [cm**-1]  || [atomic units] [(debye/angs)**2] [(KM/mol)] [arbitrary]
 ------ ---------- || -------------- ----------------- ---------- -----------
    1       -0.000 ||    0.000000           0.000         0.000       0.000
    2        0.000 ||    0.000000           0.000         0.000       0.000
    3        0.000 ||    0.000000           0.000         0.000       0.000
    4        0.000 ||    0.000000           0.000         0.000       0.000
    5        0.000 ||    0.000000           0.000         0.000       0.000
    6        0.000 ||    0.000000           0.000         0.000       0.000
    7     1356.051 ||    0.014474           0.334        14.110      17.893
    8     1356.053 ||    0.014474           0.334        14.110      17.893
    9     1356.054 ||    0.014474           0.334        14.110      17.893
   10     1578.517 ||    0.000000           0.000         0.000       0.000
   11     1578.517 ||    0.000000           0.000         0.000       0.000
   12     3047.355 ||    0.000000           0.000         0.000       0.000
   13     3163.246 ||    0.025972           0.599        25.319      32.107
   14     3163.256 ||    0.025972           0.599        25.319      32.107
   15     3163.261 ||    0.025972           0.599        25.319      32.107
 ----------------------------------------------------------------------------



 vib:animation  F


                                NWChem Input Module
                                -------------------




                                     CITATION
                                     --------
                Please cite the following reference when publishing
                           results obtained with NWChem:

          E. Aprà, E. J. Bylaska, W. A. de Jong, N. Govind, K. Kowalski,
       T. P. Straatsma, M. Valiev, H. J. J. van Dam, Y. Alexeev, J. Anchell,
       V. Anisimov, F. W. Aquino, R. Atta-Fynn, J. Autschbach, N. P. Bauman,
     J. C. Becca, D. E. Bernholdt, K. Bhaskaran-Nair, S. Bogatko, P. Borowski,
        J. Boschen, J. Brabec, A. Bruner, E. Cauët, Y. Chen, G. N. Chuev,
      C. J. Cramer, J. Daily, M. J. O. Deegan, T. H. Dunning Jr., M. Dupuis,
   K. G. Dyall, G. I. Fann, S. A. Fischer, A. Fonari, H. Früchtl, L. Gagliardi,
      J. Garza, N. Gawande, S. Ghosh, K. Glaesemann, A. W. Götz, J. Hammond,
       V. Helms, E. D. Hermes, K. Hirao, S. Hirata, M. Jacquelin, L. Jensen,
   B. G. Johnson, H. Jónsson, R. A. Kendall, M. Klemm, R. Kobayashi, V. Konkov,
      S. Krishnamoorthy, M. Krishnan, Z. Lin, R. D. Lins, R. J. Littlefield,
      A. J. Logsdail, K. Lopata, W. Ma, A. V. Marenich, J. Martin del Campo,
   D. Mejia-Rodriguez, J. E. Moore, J. M. Mullin, T. Nakajima, D. R. Nascimento,
    J. A. Nichols, P. J. Nichols, J. Nieplocha, A. Otero-de-la-Roza, B. Palmer,
    A. Panyala, T. Pirojsirikul, B. Peng, R. Peverati, J. Pittner, L. Pollack,
   R. M. Richard, P. Sadayappan, G. C. Schatz, W. A. Shelton, D. W. Silverstein,
   D. M. A. Smith, T. A. Soares, D. Song, M. Swart, H. L. Taylor, G. S. Thomas,
            V. Tipparaju, D. G. Truhlar, K. Tsemekhman, T. Van Voorhis,
     Á. Vázquez-Mayagoitia, P. Verma, O. Villa, A. Vishnu, K. D. Vogiatzis,
        D. Wang, J. H. Weare, M. J. Williamson, T. L. Windus, K. Woliński,
        A. T. Wong, Q. Wu, C. Yang, Q. Yu, M. Zacharias, Z. Zhang, Y. Zhao,
                                and R. J. Harrison
                        "NWChem: Past, present, and future
                         J. Chem. Phys. 152, 184102 (2020)
                               doi:10.1063/5.0004997

                                      AUTHORS
                                      -------
     E. Apra, E. J. Bylaska, N. Govind, K. Kowalski, M. Valiev, W. A. de Jong,
      T. P. Straatsma, H. J. J. van Dam, D. Wang, T. L. Windus, N. P. Bauman,
       A. Panyala, J. Hammond, J. Autschbach, K. Bhaskaran-Nair, J. Brabec,
    K. Lopata, S. A. Fischer, S. Krishnamoorthy, M. Jacquelin, W. Ma, M. Klemm,
       O. Villa, Y. Chen, V. Anisimov, F. Aquino, S. Hirata, M. T. Hackler,
           Eric Hermes, L. Jensen, J. E. Moore, J. C. Becca, V. Konjkov,
            D. Mejia-Rodriguez, T. Risthaus, M. Malagoli, A. Marenich,
   A. Otero-de-la-Roza, J. Mullin, P. Nichols, R. Peverati, J. Pittner, Y. Zhao,
        P.-D. Fan, A. Fonari, M. J. Williamson, R. J. Harrison, J. R. Rehr,
      M. Dupuis, D. Silverstein, D. M. A. Smith, J. Nieplocha, V. Tipparaju,
      M. Krishnan, B. E. Van Kuiken, A. Vazquez-Mayagoitia, M. Swart, Q. Wu,
   T. Van Voorhis, A. A. Auer, M. Nooijen, L. D. Crosby, E. Brown, G. Cisneros,
     G. I. Fann, H. Fruchtl, J. Garza, K. Hirao, R. A. Kendall, J. A. Nichols,
       K. Tsemekhman, K. Wolinski, J. Anchell, D. E. Bernholdt, P. Borowski,
       T. Clark, D. Clerc, H. Dachsel, M. J. O. Deegan, K. Dyall, D. Elwood,
      E. Glendening, M. Gutowski, A. C. Hess, J. Jaffe, B. G. Johnson, J. Ju,
        R. Kobayashi, R. Kutteh, Z. Lin, R. Littlefield, X. Long, B. Meng,
      T. Nakajima, S. Niu, L. Pollack, M. Rosing, K. Glaesemann, G. Sandrone,
      M. Stave, H. Taylor, G. Thomas, J. H. van Lenthe, A. T. Wong, Z. Zhang.

 Total times  cpu:        3.8s     wall:        5.1s
