
     Program PWSCF v.7.4.1 starts on 28Aug2025 at 11:54:25 

     This program is part of the open-source Quantum ESPRESSO suite
     for quantum simulation of materials; please cite
         "P. Giannozzi et al., J. Phys.:Condens. Matter 21 395502 (2009);
         "P. Giannozzi et al., J. Phys.:Condens. Matter 29 465901 (2017);
         "P. Giannozzi et al., J. Chem. Phys. 152 154105 (2020);
          URL http://www.quantum-espresso.org", 
     in publications or presentations arising from this work. More details at
     http://www.quantum-espresso.org/quote

     Parallel version (MPI), running on     8 processors

     MPI processes distributed on     1 nodes
     15339 MiB available memory on the printing compute node when the environment starts

     Waiting for input...
     Reading input from standard input

     Current dimensions of program PWSCF are:
     Max number of different atomic species (ntypx) = 10
     Max number of k-points (npk) =  40000
     Max angular momentum in pseudopotentials (lmaxx) =  4
     Message from routine setup:
     using ibrav=0 with symmetry is DISCOURAGED, use correct ibrav instead

     R & G space division:  proc/nbgrp/npool/nimage =       8
     Subspace diagonalization in iterative solution of the eigenvalue problem:
     a serial algorithm will be used


     Parallelization info
     --------------------
     sticks:   dense  smooth     PW     G-vecs:    dense   smooth      PW
     Min         119     119     35                 2398     2398     392
     Max         120     120     36                 2400     2400     395
     Sum         955     955    283                19195    19195    3143

     Using Slab Decomposition



     bravais-lattice index     =            0
     lattice parameter (alat)  =       7.2555  a.u.
     unit-cell volume          =     270.0773 (a.u.)^3
     number of atoms/cell      =            2
     number of atomic types    =            1
     number of electrons       =         8.00
     number of Kohn-Sham states=            8
     kinetic-energy cutoff     =      65.0000  Ry
     charge density cutoff     =     260.0000  Ry
     scf convergence threshold =      1.0E-10
     mixing beta               =       0.7000
     number of iterations used =            8  plain     mixing
     energy convergence thresh.=      1.0E-04
     force convergence thresh. =      1.0E-03
     press convergence thresh. =      5.0E-01
     Exchange-correlation= PBE
                           (   1   4   3   4   0   0   0)
     nstep                     =           50


     celldm(1)=   7.255506  celldm(2)=   0.000000  celldm(3)=   0.000000
     celldm(4)=   0.000000  celldm(5)=   0.000000  celldm(6)=   0.000000

     crystal axes: (cart. coord. in units of alat)
               a(1) = (   0.000000   0.707107   0.707107 )  
               a(2) = (   0.707107   0.000000   0.707107 )  
               a(3) = (   0.707107   0.707107   0.000000 )  

     reciprocal axes: (cart. coord. in units 2 pi/alat)
               b(1) = ( -0.707107  0.707107  0.707107 )  
               b(2) = (  0.707107 -0.707107  0.707107 )  
               b(3) = (  0.707107  0.707107 -0.707107 )  


     PseudoPot. # 1 for Si read from file:
     ./Si.upf
     MD5 check sum: 02fab3f35e82123ef5bf1cb05d5b1a5e
     Pseudo is Norm-conserving + core correction, Zval =  4.0
     Generated using ONCVPSP code by D. R. Hamann
     Using radial grid of 1510 points,  6 beta functions with: 
                l(1) =   0
                l(2) =   0
                l(3) =   1
                l(4) =   1
                l(5) =   2
                l(6) =   2

     atomic species   valence    mass     pseudopotential
     Si                4.00    28.08500     Si( 1.00)

     48 Sym. Ops., with inversion, found (24 have fractional translation)



   Cartesian axes

     site n.     atom                  positions (alat units)
         1        Si     tau(   1) = (   0.3535534   1.0606602   1.0606602  )
         2        Si     tau(   2) = (   0.0000000   0.0000000   0.0000000  )

     number of k points=   120  Gaussian smearing, width (Ry)=  0.0100

     Number of k-points >= 100: set verbosity='high' to print them.

     Dense  grid:    19195 G-vectors     FFT dimensions: (  40,  40,  40)

     Estimated max dynamical RAM per process >       8.86 MB

     Estimated total dynamical RAM >      70.90 MB

     Initial potential from superposition of free atoms

     starting charge       7.9988, renormalised to       8.0000
     Starting wfcs are    8 randomized atomic wfcs

     total cpu time spent up to now is        0.8 secs

     Self-consistent Calculation

     iteration #  1     ecut=    65.00 Ry     beta= 0.70
     Davidson diagonalization with overlap
     ethr =  1.00E-02,  avg # of iterations =  4.8

     Threshold (ethr) on eigenvalues was too large:
     Diagonalizing with lowered threshold

     Davidson diagonalization with overlap
     ethr =  6.54E-04,  avg # of iterations =  1.8

     total cpu time spent up to now is        5.7 secs

     total energy              =     -16.92246886 Ry
     estimated scf accuracy    <       0.05589501 Ry

     iteration #  2     ecut=    65.00 Ry     beta= 0.70
     Davidson diagonalization with overlap
     ethr =  6.99E-04,  avg # of iterations =  1.0

     total cpu time spent up to now is        8.4 secs

     total energy              =     -16.92476002 Ry
     estimated scf accuracy    <       0.00217440 Ry

     iteration #  3     ecut=    65.00 Ry     beta= 0.70
     Davidson diagonalization with overlap
     ethr =  2.72E-05,  avg # of iterations =  4.6

     total cpu time spent up to now is       12.8 secs

     total energy              =     -16.92487437 Ry
     estimated scf accuracy    <       0.00003897 Ry

     iteration #  4     ecut=    65.00 Ry     beta= 0.70
     Davidson diagonalization with overlap
     ethr =  4.87E-07,  avg # of iterations =  3.7

     total cpu time spent up to now is       18.4 secs

     total energy              =     -16.92488352 Ry
     estimated scf accuracy    <       0.00000017 Ry

     iteration #  5     ecut=    65.00 Ry     beta= 0.70
     Davidson diagonalization with overlap
     ethr =  2.10E-09,  avg # of iterations =  3.8

     total cpu time spent up to now is       20.9 secs

     total energy              =     -16.92488384 Ry
     estimated scf accuracy    <          8.8E-09 Ry

     iteration #  6     ecut=    65.00 Ry     beta= 0.70
     Davidson diagonalization with overlap
     ethr =  1.10E-10,  avg # of iterations =  2.1

     total cpu time spent up to now is       23.4 secs

     total energy              =     -16.92488384 Ry
     estimated scf accuracy    <          1.8E-10 Ry

     iteration #  7     ecut=    65.00 Ry     beta= 0.70
     Davidson diagonalization with overlap
     ethr =  2.21E-12,  avg # of iterations =  3.1

     total cpu time spent up to now is       25.9 secs

     End of self-consistent calculation

     Number of k-points >= 100: set verbosity='high' to print the bands.

     the Fermi energy is     6.5148 ev

!    total energy              =     -16.92488384 Ry
     estimated scf accuracy    <          3.7E-11 Ry
     smearing contrib. (-TS)   =      -0.00000022 Ry
     internal energy E=F+TS    =     -16.92488363 Ry

     The total energy is F=E-TS. E is the sum of the following terms:
     one-electron contribution =       4.96416559 Ry
     hartree contribution      =       1.09478246 Ry
     xc contribution           =      -6.18426917 Ry
     ewald contribution        =     -16.79956250 Ry

     convergence has been achieved in   7 iterations

     Forces acting on atoms (cartesian axes, Ry/au):

     atom    1 type  1   force =    -0.00000000    0.00000000    0.00000000
     atom    2 type  1   force =     0.00000000   -0.00000000   -0.00000000

     Total force =     0.000000     Total SCF correction =     0.000000


     Computing stress (Cartesian axis) and pressure

          total   stress  (Ry/bohr**3)                   (kbar)     P=       19.93
   0.00013547   0.00000000   0.00000000           19.93        0.00        0.00
   0.00000000   0.00013547   0.00000000            0.00       19.93        0.00
   0.00000000   0.00000000   0.00013547            0.00        0.00       19.93


     BFGS Geometry Optimization
     Energy error            =      3.7E-04 Ry
     Gradient error          =      2.8E-31 Ry/Bohr
     Cell gradient error     =      2.0E+01 kbar

     number of scf cycles    =   1
     number of bfgs steps    =   0

     enthalpy           new  =     -16.9248838447 Ry

     new trust radius        =       0.0111314287 bohr
     new conv_thr            =            1.0E-10 Ry

     new unit-cell volume =    272.83063 a.u.^3 (    40.42933 Ang^3 )
     density =      2.30705 g/cm^3

CELL_PARAMETERS (angstrom)
   0.000000000   2.724094555   2.724094555
   2.724094555   0.000000000   2.724094555
   2.724094555   2.724094555   0.000000000

ATOMIC_POSITIONS (angstrom)
Si               1.3620472773        4.0861418320        4.0861418320
Si               0.0000000000       -0.0000000000       -0.0000000000



     Writing config-only to output data dir ./pwscf.save/ :
     XML data file
     NEW-OLD atomic charge density approx. for the potential
     New effective cutoffs (rho, wfc):  257.73   64.56

     total cpu time spent up to now is       27.2 secs

     Self-consistent Calculation

     iteration #  1     ecut=    65.00 Ry     beta= 0.70
     Davidson diagonalization with overlap
     ethr =  1.00E-06,  avg # of iterations =  3.3

     Threshold (ethr) on eigenvalues was too large:
     Diagonalizing with lowered threshold

     Davidson diagonalization with overlap
     ethr =  3.92E-08,  avg # of iterations =  2.5

     total cpu time spent up to now is       38.2 secs

     total energy              =     -16.92516579 Ry
     estimated scf accuracy    <       0.00000295 Ry

     iteration #  2     ecut=    65.00 Ry     beta= 0.70
     Davidson diagonalization with overlap
     ethr =  3.69E-08,  avg # of iterations =  1.1

     total cpu time spent up to now is       40.2 secs

     total energy              =     -16.92516609 Ry
     estimated scf accuracy    <       0.00000006 Ry

     iteration #  3     ecut=    65.00 Ry     beta= 0.70
     Davidson diagonalization with overlap
     ethr =  7.86E-10,  avg # of iterations =  2.4

     total cpu time spent up to now is       43.5 secs

     total energy              =     -16.92516611 Ry
     estimated scf accuracy    <          3.2E-09 Ry

     iteration #  4     ecut=    65.00 Ry     beta= 0.70
     Davidson diagonalization with overlap
     ethr =  3.98E-11,  avg # of iterations =  2.8

     total cpu time spent up to now is       46.5 secs

     End of self-consistent calculation

     Number of k-points >= 100: set verbosity='high' to print the bands.

     the Fermi energy is     6.4180 ev

!    total energy              =     -16.92516612 Ry
     estimated scf accuracy    <          6.8E-11 Ry
     smearing contrib. (-TS)   =      -0.00000016 Ry
     internal energy E=F+TS    =     -16.92516596 Ry

     The total energy is F=E-TS. E is the sum of the following terms:
     one-electron contribution =       4.88701501 Ry
     hartree contribution      =       1.10365583 Ry
     xc contribution           =      -6.17297735 Ry
     ewald contribution        =     -16.74285944 Ry

     convergence has been achieved in   4 iterations

     Forces acting on atoms (cartesian axes, Ry/au):

     atom    1 type  1   force =    -0.00000000   -0.00000000   -0.00000000
     atom    2 type  1   force =     0.00000000    0.00000000    0.00000000

     Total force =     0.000000     Total SCF correction =     0.000000


     Computing stress (Cartesian axis) and pressure

          total   stress  (Ry/bohr**3)                   (kbar)     P=       10.32
   0.00007014   0.00000000   0.00000000           10.32        0.00        0.00
   0.00000000   0.00007014   0.00000000            0.00       10.32        0.00
   0.00000000   0.00000000   0.00007014            0.00        0.00       10.32

     Energy error            =      2.8E-04 Ry
     Gradient error          =      9.3E-32 Ry/Bohr
     Cell gradient error     =      1.0E+01 kbar

     number of scf cycles    =   2
     number of bfgs steps    =   1

     enthalpy           old  =     -16.9248838447 Ry
     enthalpy           new  =     -16.9251661160 Ry

     CASE: enthalpy          _new < enthalpy          _old

     new trust radius        =       0.0121409092 bohr
     new conv_thr            =            1.0E-12 Ry

     new unit-cell volume =    275.84978 a.u.^3 (    40.87672 Ang^3 )
     density =      2.28180 g/cm^3

CELL_PARAMETERS (angstrom)
   0.000000000   2.734106001   2.734106001
   2.734106001   0.000000000   2.734106001
   2.734106001   2.734106001   0.000000000

ATOMIC_POSITIONS (angstrom)
Si               1.3670530005        4.1011590015        4.1011590015
Si               0.0000000000        0.0000000000        0.0000000000



     Writing config-only to output data dir ./pwscf.save/ :
     XML data file
     NEW-OLD atomic charge density approx. for the potential
     New effective cutoffs (rho, wfc):  255.85   64.09

     total cpu time spent up to now is       47.9 secs

     Self-consistent Calculation

     iteration #  1     ecut=    65.00 Ry     beta= 0.70
     Davidson diagonalization with overlap
     ethr =  1.00E-06,  avg # of iterations =  3.5

     Threshold (ethr) on eigenvalues was too large:
     Diagonalizing with lowered threshold

     Davidson diagonalization with overlap
     ethr =  4.72E-08,  avg # of iterations =  2.5

     total cpu time spent up to now is       55.3 secs

     total energy              =     -16.92527430 Ry
     estimated scf accuracy    <       0.00000346 Ry

     iteration #  2     ecut=    65.00 Ry     beta= 0.70
     Davidson diagonalization with overlap
     ethr =  4.32E-08,  avg # of iterations =  1.1

     total cpu time spent up to now is       57.8 secs

     total energy              =     -16.92527465 Ry
     estimated scf accuracy    <       0.00000007 Ry

     iteration #  3     ecut=    65.00 Ry     beta= 0.70
     Davidson diagonalization with overlap
     ethr =  9.10E-10,  avg # of iterations =  2.4

     total cpu time spent up to now is       61.3 secs

     total energy              =     -16.92527468 Ry
     estimated scf accuracy    <          3.6E-09 Ry

     iteration #  4     ecut=    65.00 Ry     beta= 0.70
     Davidson diagonalization with overlap
     ethr =  4.48E-11,  avg # of iterations =  2.9

     total cpu time spent up to now is       65.7 secs

     total energy              =     -16.92527468 Ry
     estimated scf accuracy    <          6.9E-11 Ry

     iteration #  5     ecut=    65.00 Ry     beta= 0.70
     Davidson diagonalization with overlap
     ethr =  8.60E-13,  avg # of iterations =  3.5

     total cpu time spent up to now is       69.5 secs

     total energy              =     -16.92527468 Ry
     estimated scf accuracy    <          6.4E-12 Ry

     iteration #  6     ecut=    65.00 Ry     beta= 0.70
     Davidson diagonalization with overlap
     ethr =  1.00E-13,  avg # of iterations =  2.0

     total cpu time spent up to now is       72.3 secs

     End of self-consistent calculation

     Number of k-points >= 100: set verbosity='high' to print the bands.

     the Fermi energy is     6.3138 ev

!    total energy              =     -16.92527468 Ry
     estimated scf accuracy    <          4.1E-13 Ry
     smearing contrib. (-TS)   =      -0.00000012 Ry
     internal energy E=F+TS    =     -16.92527457 Ry

     The total energy is F=E-TS. E is the sum of the following terms:
     one-electron contribution =       4.80375890 Ry
     hartree contribution      =       1.11333294 Ry
     xc contribution           =      -6.16081411 Ry
     ewald contribution        =     -16.68155230 Ry

     convergence has been achieved in   6 iterations

     Forces acting on atoms (cartesian axes, Ry/au):

     atom    1 type  1   force =    -0.00000000   -0.00000000    0.00000000
     atom    2 type  1   force =    -0.00000000   -0.00000000   -0.00000000

     Total force =     0.000000     Total SCF correction =     0.000000


     Computing stress (Cartesian axis) and pressure

          total   stress  (Ry/bohr**3)                   (kbar)     P=        0.35
   0.00000241  -0.00000000  -0.00000000            0.35       -0.00       -0.00
  -0.00000000   0.00000241  -0.00000000           -0.00        0.35       -0.00
  -0.00000000  -0.00000000   0.00000241           -0.00       -0.00        0.35

     Energy error            =      1.1E-04 Ry
     Gradient error          =      2.8E-31 Ry/Bohr
     Cell gradient error     =      3.5E-01 kbar

     number of scf cycles    =   3
     number of bfgs steps    =   2

     enthalpy           old  =     -16.9251661160 Ry
     enthalpy           new  =     -16.9252746836 Ry

     CASE: enthalpy          _new < enthalpy          _old

     new trust radius        =       0.0004360677 bohr
     new conv_thr            =            1.0E-12 Ry

     new unit-cell volume =    275.95843 a.u.^3 (    40.89282 Ang^3 )
     density =      2.28090 g/cm^3

CELL_PARAMETERS (angstrom)
   0.000000000   2.734464925   2.734464925
   2.734464925   0.000000000   2.734464925
   2.734464925   2.734464925   0.000000000

ATOMIC_POSITIONS (angstrom)
Si               1.3672324627        4.1016973881        4.1016973881
Si               0.0000000000        0.0000000000       -0.0000000000



     Writing config-only to output data dir ./pwscf.save/ :
     XML data file
     NEW-OLD atomic charge density approx. for the potential
     New effective cutoffs (rho, wfc):  255.78   64.07

     total cpu time spent up to now is       74.3 secs

     Self-consistent Calculation

     iteration #  1     ecut=    65.00 Ry     beta= 0.70
     Davidson diagonalization with overlap
     ethr =  1.00E-06,  avg # of iterations =  1.0

     Threshold (ethr) on eigenvalues was too large:
     Diagonalizing with lowered threshold

     Davidson diagonalization with overlap
     ethr =  1.09E-10,  avg # of iterations =  4.0

     total cpu time spent up to now is       80.4 secs

     total energy              =     -16.92527482 Ry
     estimated scf accuracy    <          4.4E-09 Ry

     iteration #  2     ecut=    65.00 Ry     beta= 0.70
     Davidson diagonalization with overlap
     ethr =  5.49E-11,  avg # of iterations =  1.1

     total cpu time spent up to now is       83.9 secs

     total energy              =     -16.92527482 Ry
     estimated scf accuracy    <          9.5E-11 Ry

     iteration #  3     ecut=    65.00 Ry     beta= 0.70
     Davidson diagonalization with overlap
     ethr =  1.19E-12,  avg # of iterations =  2.1

     total cpu time spent up to now is       88.5 secs

     total energy              =     -16.92527482 Ry
     estimated scf accuracy    <          4.7E-12 Ry

     iteration #  4     ecut=    65.00 Ry     beta= 0.70
     Davidson diagonalization with overlap
     ethr =  1.00E-13,  avg # of iterations =  2.1

     total cpu time spent up to now is       94.1 secs

     End of self-consistent calculation

     Number of k-points >= 100: set verbosity='high' to print the bands.

     the Fermi energy is     6.3101 ev

!    total energy              =     -16.92527482 Ry
     estimated scf accuracy    <          7.4E-14 Ry
     smearing contrib. (-TS)   =      -0.00000011 Ry
     internal energy E=F+TS    =     -16.92527470 Ry

     The total energy is F=E-TS. E is the sum of the following terms:
     one-electron contribution =       4.80078845 Ry
     hartree contribution      =       1.11368006 Ry
     xc contribution           =      -6.16038052 Ry
     ewald contribution        =     -16.67936268 Ry

     convergence has been achieved in   4 iterations

     Forces acting on atoms (cartesian axes, Ry/au):

     atom    1 type  1   force =     0.00000000    0.00000000    0.00000000
     atom    2 type  1   force =     0.00000000    0.00000000    0.00000000

     Total force =     0.000000     Total SCF correction =     0.000000


     Computing stress (Cartesian axis) and pressure

          total   stress  (Ry/bohr**3)                   (kbar)     P=        0.01
   0.00000004  -0.00000000   0.00000000            0.01       -0.00        0.00
  -0.00000000   0.00000004  -0.00000000           -0.00        0.01       -0.00
   0.00000000  -0.00000000   0.00000004            0.00       -0.00        0.01

     Energy error            =      1.3E-07 Ry
     Gradient error          =      0.0E+00 Ry/Bohr
     Cell gradient error     =      6.6E-03 kbar

     bfgs converged in   4 scf cycles and   3 bfgs steps
     (criteria: energy <  1.0E-04 Ry, force <  1.0E-03 Ry/Bohr, cell <  5.0E-01 kbar)

     End of BFGS Geometry Optimization

     Final enthalpy           =     -16.9252748172 Ry

     File ./pwscf.bfgs deleted, as requested
Begin final coordinates
     new unit-cell volume =    275.95843 a.u.^3 (    40.89282 Ang^3 )
     density =      2.28090 g/cm^3

CELL_PARAMETERS (angstrom)
   0.000000000   2.734464925   2.734464925
   2.734464925   0.000000000   2.734464925
   2.734464925   2.734464925   0.000000000

ATOMIC_POSITIONS (angstrom)
Si               1.3672324627        4.1016973881        4.1016973881
Si               0.0000000000        0.0000000000       -0.0000000000
End final coordinates



     Writing config-only to output data dir ./pwscf.save/ :
     XML data file

     Final scf calculation at the relaxed structure.
     The G-vectors are recalculated for the final unit cell
     Results may differ from those at the preceding step.

     Parallelization info
     --------------------
     sticks:   dense  smooth     PW     G-vecs:    dense   smooth      PW
     Min         119     119     36                 2446     2446     410
     Max         120     120     37                 2450     2450     412
     Sum         955     955    295                19579    19579    3287

     Using Slab Decomposition



     bravais-lattice index     =            0
     lattice parameter (alat)  =       7.2555  a.u.
     unit-cell volume          =     275.9584 (a.u.)^3
     number of atoms/cell      =            2
     number of atomic types    =            1
     number of electrons       =         8.00
     number of Kohn-Sham states=            8
     kinetic-energy cutoff     =      65.0000  Ry
     charge density cutoff     =     260.0000  Ry
     scf convergence threshold =      1.0E-12
     mixing beta               =       0.7000
     number of iterations used =            8  plain     mixing
     press convergence thresh. =      5.0E-01
     Exchange-correlation= PBE
                           (   1   4   3   4   0   0   0)

     celldm(1)=   7.255506  celldm(2)=   0.000000  celldm(3)=   0.000000
     celldm(4)=   0.000000  celldm(5)=   0.000000  celldm(6)=   0.000000

     crystal axes: (cart. coord. in units of alat)
               a(1) = (   0.000000   0.712203   0.712203 )  
               a(2) = (   0.712203   0.000000   0.712203 )  
               a(3) = (   0.712203   0.712203   0.000000 )  

     reciprocal axes: (cart. coord. in units 2 pi/alat)
               b(1) = ( -0.702047  0.702047  0.702047 )  
               b(2) = (  0.702047 -0.702047  0.702047 )  
               b(3) = (  0.702047  0.702047 -0.702047 )  


     PseudoPot. # 1 for Si read from file:
     ./Si.upf
     MD5 check sum: 02fab3f35e82123ef5bf1cb05d5b1a5e
     Pseudo is Norm-conserving + core correction, Zval =  4.0
     Generated using ONCVPSP code by D. R. Hamann
     Using radial grid of 1510 points,  6 beta functions with: 
                l(1) =   0
                l(2) =   0
                l(3) =   1
                l(4) =   1
                l(5) =   2
                l(6) =   2

     atomic species   valence    mass     pseudopotential
     Si                4.00    28.08500     Si( 1.00)

     48 Sym. Ops., with inversion, found (24 have fractional translation)



   Cartesian axes

     site n.     atom                  positions (alat units)
         1        Si     tau(   1) = (   0.3561013   1.0683038   1.0683038  )
         2        Si     tau(   2) = (   0.0000000   0.0000000  -0.0000000  )

     number of k points=   120  Gaussian smearing, width (Ry)=  0.0100

     Number of k-points >= 100: set verbosity='high' to print them.

     Dense  grid:    19579 G-vectors     FFT dimensions: (  40,  40,  40)

     Estimated max dynamical RAM per process >       9.01 MB

     Estimated total dynamical RAM >      72.10 MB

     Initial potential from superposition of free atoms

     starting charge       7.9988, renormalised to       8.0000
     Starting wfcs are    8 randomized atomic wfcs

     total cpu time spent up to now is       97.2 secs

     Self-consistent Calculation

     iteration #  1     ecut=    65.00 Ry     beta= 0.70
     Davidson diagonalization with overlap
     c_bands:  1 eigenvalues not converged
     c_bands:  1 eigenvalues not converged
     c_bands:  1 eigenvalues not converged
     c_bands:  1 eigenvalues not converged
     c_bands:  2 eigenvalues not converged
     c_bands:  1 eigenvalues not converged
     c_bands:  1 eigenvalues not converged
     c_bands:  1 eigenvalues not converged
     c_bands:  1 eigenvalues not converged
     c_bands:  1 eigenvalues not converged
     c_bands:  1 eigenvalues not converged
     c_bands:  1 eigenvalues not converged
     c_bands:  1 eigenvalues not converged
     ethr =  1.00E-06,  avg # of iterations = 15.6

     total cpu time spent up to now is      109.2 secs

     total energy              =     -16.92307746 Ry
     estimated scf accuracy    <       0.05515550 Ry

     iteration #  2     ecut=    65.00 Ry     beta= 0.70
     Davidson diagonalization with overlap
     ethr =  6.89E-04,  avg # of iterations =  1.0

     total cpu time spent up to now is      111.3 secs

     total energy              =     -16.92516121 Ry
     estimated scf accuracy    <       0.00211325 Ry

     iteration #  3     ecut=    65.00 Ry     beta= 0.70
     Davidson diagonalization with overlap
     ethr =  2.64E-05,  avg # of iterations =  1.3

     total cpu time spent up to now is      113.4 secs

     total energy              =     -16.92526416 Ry
     estimated scf accuracy    <       0.00003199 Ry

     iteration #  4     ecut=    65.00 Ry     beta= 0.70
     Davidson diagonalization with overlap
     ethr =  4.00E-07,  avg # of iterations =  2.8

     total cpu time spent up to now is      116.0 secs

     total energy              =     -16.92527452 Ry
     estimated scf accuracy    <       0.00000089 Ry

     iteration #  5     ecut=    65.00 Ry     beta= 0.70
     Davidson diagonalization with overlap
     ethr =  1.11E-08,  avg # of iterations =  2.7

     total cpu time spent up to now is      118.8 secs

     total energy              =     -16.92527495 Ry
     estimated scf accuracy    <       0.00000005 Ry

     iteration #  6     ecut=    65.00 Ry     beta= 0.70
     Davidson diagonalization with overlap
     ethr =  5.93E-10,  avg # of iterations =  2.7

     total cpu time spent up to now is      121.4 secs

     total energy              =     -16.92527497 Ry
     estimated scf accuracy    <          4.1E-10 Ry

     iteration #  7     ecut=    65.00 Ry     beta= 0.70
     Davidson diagonalization with overlap
     ethr =  5.19E-12,  avg # of iterations =  3.8

     total cpu time spent up to now is      124.3 secs

     total energy              =     -16.92527497 Ry
     estimated scf accuracy    <          1.2E-11 Ry

     iteration #  8     ecut=    65.00 Ry     beta= 0.70
     Davidson diagonalization with overlap
     ethr =  1.53E-13,  avg # of iterations =  2.3

     total cpu time spent up to now is      126.7 secs

     End of self-consistent calculation

     Number of k-points >= 100: set verbosity='high' to print the bands.

     the Fermi energy is     6.3101 ev

!    total energy              =     -16.92527497 Ry
     estimated scf accuracy    <          5.0E-14 Ry
     smearing contrib. (-TS)   =      -0.00000011 Ry
     internal energy E=F+TS    =     -16.92527486 Ry

     The total energy is F=E-TS. E is the sum of the following terms:
     one-electron contribution =       4.80078816 Ry
     hartree contribution      =       1.11368016 Ry
     xc contribution           =      -6.16038049 Ry
     ewald contribution        =     -16.67936268 Ry

     convergence has been achieved in   8 iterations

     Forces acting on atoms (cartesian axes, Ry/au):

     atom    1 type  1   force =    -0.00000000   -0.00000000    0.00000000
     atom    2 type  1   force =     0.00000000    0.00000000   -0.00000000

     Total force =     0.000000     Total SCF correction =     0.000000


     Computing stress (Cartesian axis) and pressure

          total   stress  (Ry/bohr**3)                   (kbar)     P=        0.01
   0.00000003   0.00000000   0.00000000            0.01        0.00        0.00
   0.00000000   0.00000003   0.00000000            0.00        0.01        0.00
   0.00000000   0.00000000   0.00000003            0.00        0.00        0.01


     Writing all to output data dir ./pwscf.save/ :
     XML data file, charge density, pseudopotentials, collected wavefunctions

     init_run     :      1.70s CPU      1.73s WALL (       2 calls)
     electrons    :    115.55s CPU    118.20s WALL (       5 calls)
     update_pot   :      0.05s CPU      0.05s WALL (       3 calls)
     forces       :      1.84s CPU      1.87s WALL (       5 calls)
     stress       :      5.99s CPU      6.08s WALL (       5 calls)

     Called by init_run:
     wfcinit      :      1.59s CPU      1.62s WALL (       2 calls)
     potinit      :      0.03s CPU      0.03s WALL (       2 calls)
     hinit0       :      0.05s CPU      0.05s WALL (       2 calls)

     Called by electrons:
     c_bands      :    101.07s CPU    103.25s WALL (      33 calls)
     sum_band     :     13.92s CPU     14.36s WALL (      33 calls)
     v_of_rho     :      0.48s CPU      0.49s WALL (      34 calls)
     mix_rho      :      0.05s CPU      0.05s WALL (      33 calls)

     Called by c_bands:
     init_us_2    :      1.10s CPU      1.14s WALL (    9360 calls)
     cegterg      :     97.24s CPU     99.29s WALL (    3960 calls)

     Called by *egterg:
     cdiaghg      :      1.85s CPU      1.89s WALL (   14788 calls)
     h_psi        :     79.54s CPU     81.25s WALL (   15868 calls)
     g_psi        :      0.06s CPU      0.07s WALL (   11668 calls)

     Called by h_psi:
     h_psi:calbec :     11.39s CPU     11.64s WALL (   15868 calls)
     vloc_psi     :     66.60s CPU     68.02s WALL (   15868 calls)
     add_vuspsi   :      1.36s CPU      1.40s WALL (   15868 calls)

     General routines
     calbec       :     17.92s CPU     18.28s WALL (   26068 calls)
     fft          :      0.39s CPU      0.40s WALL (     467 calls)
     ffts         :      0.01s CPU      0.01s WALL (      33 calls)
     fftw         :     76.70s CPU     78.44s WALL (  213372 calls)

     Parallel routines

     PWSCF        :   2m 5.42s CPU   2m 8.30s WALL


   This run was terminated on:  11:56:33  28Aug2025            

=------------------------------------------------------------------------------=
   JOB DONE.
=------------------------------------------------------------------------------=
