 *******************************************************************************
 **                                                                           **
 **                              MOPAC v23.1.2                                **
 **                                                                           **
 *******************************************************************************
 **          Digital Object Identifier (DOI): 10.5281/zenodo.6511958          **
 **    Visit the DOI location for information on how to cite this program.    **
 *******************************************************************************

                              PM7 CALCULATION RESULTS

 *******************************************************************************
 *  CALCULATION DONE: (MAX THREADS = 12)             Sat Jul 19 01:19:20 2025  *
 *  PM7        - The PM7 Hamiltonian to be used
 *  SINGLET    - SPIN STATE DEFINED AS A SINGLET
 *  RHF        - RESTRICTED HARTREE-FOCK CALCULATION
 *
 *
 *
 *                 CHARGE ON SYSTEM = 0
 *
 *
 *
 *  EPS=80.1   - USE ANDREAS KLAMT'S COSMO IMPLICIT SOLVATION MODEL
 *  PRECISE    - TIGHTER CRITERIA TO BE USED
 *  THREADS    - USE UP TO 12 THREADS
 *  T=         - A TIME OF 172800.0 SECONDS REQUESTED
 *  DUMP=N     - RESTART FILE WRITTEN EVERY 7200.0 SECONDS REQUESTED
 *******************************************************************************
 CHARGE=0 SINGLET  PM7 EPS=80.1 THREADS=12 PRECISE RHF
 C24H40N8O4 | Equilibrium Geometry | PM7

   ATOM   CHEMICAL          X               Y               Z
  NUMBER   SYMBOL      (ANGSTROMS)     (ANGSTROMS)     (ANGSTROMS)
 
     1       O          5.18470300  *  -1.91493500  *  -2.22374100  *
     2       O          5.34304300  *  -0.01683900  *   2.23681800  *
     3       O         -5.18393300  *   1.91242800  *  -2.22401700  *
     4       O         -5.34022900  *   0.02123000  *   2.23922200  *
     5       N         -0.48482600  *  -3.01171200  *  -0.01508200  *
     6       N          0.48735100  *   3.01076500  *  -0.01493400  *
     7       N          1.57317300  *  -1.92765000  *   0.01710200  *
     8       N         -1.57101100  *   1.92774700  *   0.01634200  *
     9       N          1.75477700  *   0.45651500  *   0.03790100  *
    10       N         -1.75281700  *  -0.45773100  *   0.03657000  *
    11       N          3.66814500  *  -0.87346900  *   0.02639800  *
    12       N         -3.66564000  *   0.87321700  *   0.02654000  *
    13       C          0.05770800  *  -4.21057300  *   0.65307100  *
    14       C         -1.38521500  *  -3.30239900  *  -1.14886900  *
    15       C         -0.05704900  *   4.20938300  *   0.65226700  *
    16       C          1.38689100  *   3.30136200  *  -1.14891700  *
    17       C         -1.07838100  *  -5.14484000  *   1.12035400  *
    18       C         -2.55767700  *  -4.19524500  *  -0.69357100  *
    19       C          1.07865700  *   5.14420600  *   1.12031800  *
    20       C          2.55876900  *   4.19475100  *  -0.69340600  *
    21       C         -2.01951200  *  -5.48996500  *  -0.05199200  *
    22       C          2.01994900  *   5.48922000  *  -0.05159400  *
    23       C          0.22545000  *  -1.82685700  *   0.00523000  *
    24       C         -0.22195400  *   1.82563000  *   0.00575200  *
    25       C          0.40848500  *   0.57070800  *   0.01429100  *
    26       C         -0.40606100  *  -0.57273500  *   0.01403700  *
    27       C          2.28881400  *  -0.78172700  *   0.03331200  *
    28       C         -2.28681800  *   0.78138100  *   0.03238000  *
    29       C          4.37130000  *  -2.17043500  *   0.04268600  *
    30       C          4.53473900  *   0.32363300  *  -0.01474700  *
    31       C         -4.36825300  *   2.17102800  *   0.04138200  *
    32       C         -4.53327500  *  -0.32301300  *  -0.01231400  *
    33       C          4.43449000  *  -2.77730900  *  -1.36954300  *
    34       C          4.69440800  *   0.92975800  *   1.38955000  *
    35       C         -4.43264600  *   2.77588200  *  -1.37167100  *
    36       C         -4.69352600  *  -0.92733300  *   1.39265300  *
    37       H          0.64832200  *  -3.91663900  *   1.52617400  *
    38       H          0.71086000  *  -4.74719500  *  -0.04081200  *
    39       H         -0.82106600  *  -3.81790900  *  -1.93111700  *
    40       H         -1.78697300  *  -2.38403900  *  -1.58204800  *
    41       H         -0.64864600  *   3.91611900  *   1.52454400  *
    42       H         -0.70950300  *   4.74554100  *  -0.04309700  *
    43       H          0.82236700  *   3.81625100  *  -1.93131400  *
    44       H          1.78919200  *   2.38306200  *  -1.58189700  *
    45       H         -0.65336900  *  -6.06057300  *   1.53762000  *
    46       H         -1.64770500  *  -4.65515100  *   1.91466800  *
    47       H         -3.17373600  *  -3.65266900  *   0.02867900  *
    48       H         -3.19137200  *  -4.43923100  *  -1.54920500  *
    49       H          0.65268100  *   6.05987600  *   1.53662500  *
    50       H          1.64695500  *   4.65478800  *   1.91485400  *
    51       H          3.17482100  *   3.65235200  *   0.02873600  *
    52       H          3.19233400  *   4.43925500  *  -1.54895200  *
    53       H         -1.47463500  *  -6.07044300  *  -0.80108600  *
    54       H         -2.84925600  *  -6.10463200  *   0.30380800  *
    55       H          1.47583700  *   6.07042500  *  -0.80067300  *
    56       H          2.84977500  *   6.10348400  *   0.30522700  *
    57       H          3.86275900  *  -2.86489800  *   0.71664000  *
    58       H          5.39031200  *  -2.04005200  *   0.41771800  *
    59       H          4.11295600  *   1.07379200  *  -0.68942200  *
    60       H          5.52344100  *   0.06027600  *  -0.40073100  *
    61       H         -5.38699100  *   2.04212200  *   0.41804200  *
    62       H         -3.85859000  *   2.86654100  *   0.71365600  *
    63       H         -5.52223400  *  -0.05936400  *  -0.39780100  *
    64       H         -4.11268000  *  -1.07438900  *  -0.68591500  *
    65       H          4.91872300  *  -3.75602000  *  -1.32772700  *
    66       H          3.42351700  *  -2.90122100  *  -1.76820100  *
    67       H          5.29750800  *   1.83945500  *   1.33331500  *
    68       H          3.71342000  *   1.18297400  *   1.80161100  *
    69       H         -4.91651600  *   3.75476800  *  -1.33076700  *
    70       H         -3.42193600  *   2.89871600  *  -1.77128100  *
    71       H         -5.29717200  *  -1.83614700  *   1.33841800  *
    72       H         -3.71197800  *  -1.18084500  *   1.80505000  *
    73       H          5.08250000  *  -2.23820000  *  -3.13070000  *
    74       H          5.26060000  *   0.30100000  *   3.14700000  *
    75       H         -5.08420000  *   2.23550000  *  -3.13140000  *
    76       H         -5.25850000  *  -0.29650000  *   3.14940000  *
 


          CARTESIAN COORDINATES 

    NO.       ATOM           X           Y           Z

     1         O          5.1847     -1.9149     -2.2237
     2         O          5.3430     -0.0168      2.2368
     3         O         -5.1839      1.9124     -2.2240
     4         O         -5.3402      0.0212      2.2392
     5         N         -0.4848     -3.0117     -0.0151
     6         N          0.4874      3.0108     -0.0149
     7         N          1.5732     -1.9277      0.0171
     8         N         -1.5710      1.9277      0.0163
     9         N          1.7548      0.4565      0.0379
    10         N         -1.7528     -0.4577      0.0366
    11         N          3.6681     -0.8735      0.0264
    12         N         -3.6656      0.8732      0.0265
    13         C          0.0577     -4.2106      0.6531
    14         C         -1.3852     -3.3024     -1.1489
    15         C         -0.0570      4.2094      0.6523
    16         C          1.3869      3.3014     -1.1489
    17         C         -1.0784     -5.1448      1.1204
    18         C         -2.5577     -4.1952     -0.6936
    19         C          1.0787      5.1442      1.1203
    20         C          2.5588      4.1948     -0.6934
    21         C         -2.0195     -5.4900     -0.0520
    22         C          2.0199      5.4892     -0.0516
    23         C          0.2255     -1.8269      0.0052
    24         C         -0.2220      1.8256      0.0058
    25         C          0.4085      0.5707      0.0143
    26         C         -0.4061     -0.5727      0.0140
    27         C          2.2888     -0.7817      0.0333
    28         C         -2.2868      0.7814      0.0324
    29         C          4.3713     -2.1704      0.0427
    30         C          4.5347      0.3236     -0.0147
    31         C         -4.3683      2.1710      0.0414
    32         C         -4.5333     -0.3230     -0.0123
    33         C          4.4345     -2.7773     -1.3695
    34         C          4.6944      0.9298      1.3896
    35         C         -4.4326      2.7759     -1.3717
    36         C         -4.6935     -0.9273      1.3927
    37         H          0.6483     -3.9166      1.5262
    38         H          0.7109     -4.7472     -0.0408
    39         H         -0.8211     -3.8179     -1.9311
    40         H         -1.7870     -2.3840     -1.5820
    41         H         -0.6486      3.9161      1.5245
    42         H         -0.7095      4.7455     -0.0431
    43         H          0.8224      3.8163     -1.9313
    44         H          1.7892      2.3831     -1.5819
    45         H         -0.6534     -6.0606      1.5376
    46         H         -1.6477     -4.6552      1.9147
    47         H         -3.1737     -3.6527      0.0287
    48         H         -3.1914     -4.4392     -1.5492
    49         H          0.6527      6.0599      1.5366
    50         H          1.6470      4.6548      1.9149
    51         H          3.1748      3.6524      0.0287
    52         H          3.1923      4.4393     -1.5490
    53         H         -1.4746     -6.0704     -0.8011
    54         H         -2.8493     -6.1046      0.3038
    55         H          1.4758      6.0704     -0.8007
    56         H          2.8498      6.1035      0.3052
    57         H          3.8628     -2.8649      0.7166
    58         H          5.3903     -2.0401      0.4177
    59         H          4.1130      1.0738     -0.6894
    60         H          5.5234      0.0603     -0.4007
    61         H         -5.3870      2.0421      0.4180
    62         H         -3.8586      2.8665      0.7137
    63         H         -5.5222     -0.0594     -0.3978
    64         H         -4.1127     -1.0744     -0.6859
    65         H          4.9187     -3.7560     -1.3277
    66         H          3.4235     -2.9012     -1.7682
    67         H          5.2975      1.8395      1.3333
    68         H          3.7134      1.1830      1.8016
    69         H         -4.9165      3.7548     -1.3308
    70         H         -3.4219      2.8987     -1.7713
    71         H         -5.2972     -1.8361      1.3384
    72         H         -3.7120     -1.1808      1.8051
    73         H          5.0825     -2.2382     -3.1307
    74         H          5.2606      0.3010      3.1470
    75         H         -5.0842      2.2355     -3.1314
    76         H         -5.2585     -0.2965      3.1494

 General Reference for PM7:
 "Optimization of Parameters for Semiempirical Methods VI: More Modifications to the 
 NDDO Approximations and Re-optimization of Parameters", J. J. P. Stewart, J. Mol. Mod., 1:32, 19 (2013)
 https://link.springer.com/article/10.1007/s00894-012-1667-x

           Empirical Formula: C24 H40 N8 O4  =    76 atoms



      MOLECULAR POINT GROUP   :   C2  


 SINGLET STATE CALCULATION


      RHF CALCULATION, NO. OF DOUBLY OCCUPIED LEVELS = 100


          Geometry optimization using L-BFGS
 CYCLE:     1 TIME:   0.094 TIME LEFT:  2.00D  GRAD.:   191.023 HEAT: -117.0640
 CYCLE:     2 TIME:   0.053 TIME LEFT:  2.00D  GRAD.:   187.223 HEAT: -117.3814
 CYCLE:     3 TIME:   0.056 TIME LEFT:  2.00D  GRAD.:    47.189 HEAT: -128.9256
 CYCLE:     4 TIME:   0.055 TIME LEFT:  2.00D  GRAD.:   187.211 HEAT: -117.3816
 CYCLE:     5 TIME:   0.055 TIME LEFT:  2.00D  GRAD.:   114.049 HEAT: -125.5771
 CYCLE:     6 TIME:   0.047 TIME LEFT:  2.00D  GRAD.:    38.832 HEAT: -130.5782
 CYCLE:     7 TIME:   0.056 TIME LEFT:  2.00D  GRAD.:    29.683 HEAT: -132.0276
 CYCLE:     8 TIME:   0.050 TIME LEFT:  2.00D  GRAD.:    24.909 HEAT: -132.6473
 CYCLE:     9 TIME:   0.039 TIME LEFT:  2.00D  GRAD.:    16.277 HEAT: -132.9050
 CYCLE:    10 TIME:   0.052 TIME LEFT:  2.00D  GRAD.:    17.214 HEAT: -133.3235
 CYCLE:    11 TIME:   0.042 TIME LEFT:  2.00D  GRAD.:    21.306 HEAT: -133.6410
 CYCLE:    12 TIME:   0.045 TIME LEFT:  2.00D  GRAD.:    28.600 HEAT: -133.8819
 CYCLE:    13 TIME:   0.048 TIME LEFT:  2.00D  GRAD.:    14.732 HEAT: -134.1894
 CYCLE:    14 TIME:   0.044 TIME LEFT:  2.00D  GRAD.:    14.607 HEAT: -134.4228
 CYCLE:    15 TIME:   0.049 TIME LEFT:  2.00D  GRAD.:    16.994 HEAT: -134.5726
 CYCLE:    16 TIME:   0.059 TIME LEFT:  2.00D  GRAD.:    39.846 HEAT: -134.7228
 CYCLE:    17 TIME:   0.042 TIME LEFT:  2.00D  GRAD.:    12.442 HEAT: -135.0473
 CYCLE:    18 TIME:   0.040 TIME LEFT:  2.00D  GRAD.:     9.810 HEAT: -135.1776
 CYCLE:    19 TIME:   0.042 TIME LEFT:  2.00D  GRAD.:    12.916 HEAT: -135.3276
 CYCLE:    20 TIME:   0.042 TIME LEFT:  2.00D  GRAD.:    13.820 HEAT: -135.5508
 CYCLE:    21 TIME:   0.043 TIME LEFT:  2.00D  GRAD.:    31.213 HEAT: -135.5816
 CYCLE:    22 TIME:   0.044 TIME LEFT:  2.00D  GRAD.:     9.794 HEAT: -135.7806
 CYCLE:    23 TIME:   0.055 TIME LEFT:  2.00D  GRAD.:    10.490 HEAT: -135.8708
 CYCLE:    24 TIME:   0.043 TIME LEFT:  2.00D  GRAD.:    18.119 HEAT: -136.1234
 CYCLE:    25 TIME:   0.065 TIME LEFT:  2.00D  GRAD.:    28.518 HEAT: -136.4666
 CYCLE:    26 TIME:   0.050 TIME LEFT:  2.00D  GRAD.:    24.400 HEAT: -136.9597
 CYCLE:    27 TIME:   0.074 TIME LEFT:  2.00D  GRAD.:    19.931 HEAT: -137.2437
 CYCLE:    28 TIME:   0.054 TIME LEFT:  2.00D  GRAD.:    27.722 HEAT: -137.9292
 CYCLE:    29 TIME:   0.053 TIME LEFT:  2.00D  GRAD.:    21.623 HEAT: -138.5498
 CYCLE:    30 TIME:   0.052 TIME LEFT:  2.00D  GRAD.:    40.822 HEAT: -138.5872
 CYCLE:    31 TIME:   0.054 TIME LEFT:  2.00D  GRAD.:    28.314 HEAT: -139.2941
 CYCLE:    32 TIME:   0.058 TIME LEFT:  2.00D  GRAD.:    25.936 HEAT: -139.5311
 CYCLE:    33 TIME:   0.044 TIME LEFT:  2.00D  GRAD.:    16.881 HEAT: -139.9837
 CYCLE:    34 TIME:   0.056 TIME LEFT:  2.00D  GRAD.:    25.373 HEAT: -140.6688
 CYCLE:    35 TIME:   0.048 TIME LEFT:  2.00D  GRAD.:    36.632 HEAT: -141.0711
 CYCLE:    36 TIME:   0.052 TIME LEFT:  2.00D  GRAD.:    52.130 HEAT: -141.1896
 CYCLE:    37 TIME:   0.051 TIME LEFT:  2.00D  GRAD.:    49.756 HEAT: -142.1880
 CYCLE:    38 TIME:   0.044 TIME LEFT:  2.00D  GRAD.:    25.667 HEAT: -142.6558
 CYCLE:    39 TIME:   0.042 TIME LEFT:  2.00D  GRAD.:    22.455 HEAT: -143.0070
 CYCLE:    40 TIME:   0.044 TIME LEFT:  2.00D  GRAD.:    24.848 HEAT: -143.6866
 CYCLE:    41 TIME:   0.045 TIME LEFT:  2.00D  GRAD.:    36.040 HEAT: -143.7488
 CYCLE:    42 TIME:   0.052 TIME LEFT:  2.00D  GRAD.:    21.897 HEAT: -144.2291
 CYCLE:    43 TIME:   0.043 TIME LEFT:  2.00D  GRAD.:    13.953 HEAT: -144.5153
 CYCLE:    44 TIME:   0.044 TIME LEFT:  2.00D  GRAD.:    18.604 HEAT: -144.7425
 CYCLE:    45 TIME:   0.052 TIME LEFT:  2.00D  GRAD.:    34.012 HEAT: -145.1320
 CYCLE:    46 TIME:   0.044 TIME LEFT:  2.00D  GRAD.:    22.071 HEAT: -145.6477
 CYCLE:    47 TIME:   0.044 TIME LEFT:  2.00D  GRAD.:    27.806 HEAT: -145.8568
 CYCLE:    48 TIME:   0.067 TIME LEFT:  2.00D  GRAD.:    19.732 HEAT: -146.1826
 CYCLE:    49 TIME:   0.057 TIME LEFT:  2.00D  GRAD.:    16.691 HEAT: -146.5844
 CYCLE:    50 TIME:   0.057 TIME LEFT:  2.00D  GRAD.:    19.517 HEAT: -146.9072
 CYCLE:    51 TIME:   0.053 TIME LEFT:  2.00D  GRAD.:    23.010 HEAT: -147.3945
 CYCLE:    52 TIME:   0.050 TIME LEFT:  2.00D  GRAD.:    41.134 HEAT: -147.1345
 CYCLE:    53 TIME:   0.052 TIME LEFT:  2.00D  GRAD.:    31.298 HEAT: -147.1580
 CYCLE:    54 TIME:   0.057 TIME LEFT:  2.00D  GRAD.:    26.796 HEAT: -147.6679
 CYCLE:    55 TIME:   0.044 TIME LEFT:  2.00D  GRAD.:    11.808 HEAT: -147.8279
 CYCLE:    56 TIME:   0.041 TIME LEFT:  2.00D  GRAD.:    11.375 HEAT: -147.9385
 CYCLE:    57 TIME:   0.048 TIME LEFT:  2.00D  GRAD.:    16.186 HEAT: -148.4000
 CYCLE:    58 TIME:   0.043 TIME LEFT:  2.00D  GRAD.:    61.372 HEAT: -148.5381
 CYCLE:    59 TIME:   0.054 TIME LEFT:  2.00D  GRAD.:    15.141 HEAT: -148.9458
 CYCLE:    60 TIME:   0.050 TIME LEFT:  2.00D  GRAD.:    12.068 HEAT: -149.1065
 CYCLE:    61 TIME:   0.041 TIME LEFT:  2.00D  GRAD.:    10.882 HEAT: -149.4499
 CYCLE:    62 TIME:   0.043 TIME LEFT:  2.00D  GRAD.:    23.438 HEAT: -149.4634
 CYCLE:    63 TIME:   0.059 TIME LEFT:  2.00D  GRAD.:    15.597 HEAT: -149.6628
 CYCLE:    64 TIME:   0.055 TIME LEFT:  2.00D  GRAD.:     8.392 HEAT: -149.7320
 CYCLE:    65 TIME:   0.056 TIME LEFT:  2.00D  GRAD.:     7.376 HEAT: -149.7258
 CYCLE:    66 TIME:   0.053 TIME LEFT:  2.00D  GRAD.:    10.769 HEAT: -149.8114
 CYCLE:    67 TIME:   0.053 TIME LEFT:  2.00D  GRAD.:    18.922 HEAT: -149.8480
 CYCLE:    68 TIME:   0.043 TIME LEFT:  2.00D  GRAD.:     9.730 HEAT: -149.8327
 CYCLE:    69 TIME:   0.041 TIME LEFT:  2.00D  GRAD.:    11.607 HEAT: -149.9893
 CYCLE:    70 TIME:   0.051 TIME LEFT:  2.00D  GRAD.:    13.842 HEAT: -150.0618
 CYCLE:    71 TIME:   0.052 TIME LEFT:  2.00D  GRAD.:    20.679 HEAT: -150.1854
 CYCLE:    72 TIME:   0.046 TIME LEFT:  2.00D  GRAD.:    15.306 HEAT: -150.3235
 CYCLE:    73 TIME:   0.046 TIME LEFT:  2.00D  GRAD.:    14.060 HEAT: -150.5736
 CYCLE:    74 TIME:   0.046 TIME LEFT:  2.00D  GRAD.:    21.039 HEAT: -151.0040
 CYCLE:    75 TIME:   0.049 TIME LEFT:  2.00D  GRAD.:    20.085 HEAT: -151.1915
 CYCLE:    76 TIME:   0.059 TIME LEFT:  2.00D  GRAD.:    30.538 HEAT: -151.2195
 CYCLE:    77 TIME:   0.044 TIME LEFT:  2.00D  GRAD.:    20.625 HEAT: -151.5769
 CYCLE:    78 TIME:   0.052 TIME LEFT:  2.00D  GRAD.:    13.735 HEAT: -151.8130
 CYCLE:    79 TIME:   0.048 TIME LEFT:  2.00D  GRAD.:    18.854 HEAT: -152.0177
 CYCLE:    80 TIME:   0.046 TIME LEFT:  2.00D  GRAD.:    16.688 HEAT: -152.3375
 CYCLE:    81 TIME:   0.048 TIME LEFT:  2.00D  GRAD.:    35.365 HEAT: -152.4190
 CYCLE:    82 TIME:   0.045 TIME LEFT:  2.00D  GRAD.:    15.536 HEAT: -152.7435
 CYCLE:    83 TIME:   0.042 TIME LEFT:  2.00D  GRAD.:    15.340 HEAT: -152.9662
 CYCLE:    84 TIME:   0.049 TIME LEFT:  2.00D  GRAD.:    10.867 HEAT: -153.3955
 CYCLE:    85 TIME:   0.050 TIME LEFT:  2.00D  GRAD.:    10.707 HEAT: -153.5517
 CYCLE:    86 TIME:   0.059 TIME LEFT:  2.00D  GRAD.:    24.402 HEAT: -153.5469
 CYCLE:    87 TIME:   0.046 TIME LEFT:  2.00D  GRAD.:    13.958 HEAT: -153.5470
 CYCLE:    88 TIME:   0.040 TIME LEFT:  2.00D  GRAD.:     6.727 HEAT: -153.6235
 CYCLE:    89 TIME:   0.040 TIME LEFT:  2.00D  GRAD.:     6.838 HEAT: -153.7401
 CYCLE:    90 TIME:   0.054 TIME LEFT:  2.00D  GRAD.:     9.076 HEAT: -153.7751
 CYCLE:    91 TIME:   0.044 TIME LEFT:  2.00D  GRAD.:     8.334 HEAT: -153.8097
 CYCLE:    92 TIME:   0.041 TIME LEFT:  2.00D  GRAD.:     6.946 HEAT: -153.7592
 CYCLE:    93 TIME:   0.040 TIME LEFT:  2.00D  GRAD.:     6.525 HEAT: -153.7674
 CYCLE:    94 TIME:   0.040 TIME LEFT:  2.00D  GRAD.:     5.897 HEAT: -153.8104
 CYCLE:    95 TIME:   0.072 TIME LEFT:  2.00D  GRAD.:     8.246 HEAT: -153.8769
 CYCLE:    96 TIME:   0.045 TIME LEFT:  2.00D  GRAD.:     9.679 HEAT: -153.9160
 CYCLE:    97 TIME:   0.046 TIME LEFT:  2.00D  GRAD.:     6.880 HEAT: -153.9462
 CYCLE:    98 TIME:   0.040 TIME LEFT:  2.00D  GRAD.:     4.771 HEAT: -153.9711
 CYCLE:    99 TIME:   0.044 TIME LEFT:  2.00D  GRAD.:     5.132 HEAT: -153.9798
 CYCLE:   100 TIME:   0.051 TIME LEFT:  2.00D  GRAD.:     5.124 HEAT: -154.0099
 CYCLE:   101 TIME:   0.040 TIME LEFT:  2.00D  GRAD.:     8.121 HEAT: -154.0428
 CYCLE:   102 TIME:   0.041 TIME LEFT:  2.00D  GRAD.:     4.773 HEAT: -154.0658
 CYCLE:   103 TIME:   0.040 TIME LEFT:  2.00D  GRAD.:     5.227 HEAT: -154.0977
 CYCLE:   104 TIME:   0.067 TIME LEFT:  2.00D  GRAD.:     6.343 HEAT: -154.1230
 CYCLE:   105 TIME:   0.051 TIME LEFT:  2.00D  GRAD.:    12.108 HEAT: -154.1291
 CYCLE:   106 TIME:   0.044 TIME LEFT:  2.00D  GRAD.:     5.857 HEAT: -154.1899
 CYCLE:   107 TIME:   0.041 TIME LEFT:  2.00D  GRAD.:     5.633 HEAT: -154.2716
 CYCLE:   108 TIME:   0.042 TIME LEFT:  2.00D  GRAD.:     6.847 HEAT: -154.2922
 CYCLE:   109 TIME:   0.052 TIME LEFT:  2.00D  GRAD.:    12.705 HEAT: -154.2029
 CYCLE:   110 TIME:   0.066 TIME LEFT:  2.00D  GRAD.:     5.374 HEAT: -154.3066
 CYCLE:   111 TIME:   0.042 TIME LEFT:  2.00D  GRAD.:     5.962 HEAT: -154.4186
 CYCLE:   112 TIME:   0.056 TIME LEFT:  2.00D  GRAD.:     7.253 HEAT: -154.3360
 CYCLE:   113 TIME:   0.046 TIME LEFT:  2.00D  GRAD.:    11.020 HEAT: -154.4951
 CYCLE:   114 TIME:   0.046 TIME LEFT:  2.00D  GRAD.:     7.999 HEAT: -154.7027
 CYCLE:   115 TIME:   0.041 TIME LEFT:  2.00D  GRAD.:     4.940 HEAT: -154.7193
 CYCLE:   116 TIME:   0.041 TIME LEFT:  2.00D  GRAD.:     6.243 HEAT: -154.6770
 CYCLE:   117 TIME:   0.044 TIME LEFT:  2.00D  GRAD.:     8.015 HEAT: -154.7278
 CYCLE:   118 TIME:   0.054 TIME LEFT:  2.00D  GRAD.:    10.640 HEAT: -154.8137
 CYCLE:   119 TIME:   0.052 TIME LEFT:  2.00D  GRAD.:     6.956 HEAT: -154.9089
 CYCLE:   120 TIME:   0.050 TIME LEFT:  2.00D  GRAD.:     5.047 HEAT: -155.1955
 CYCLE:   121 TIME:   0.043 TIME LEFT:  2.00D  GRAD.:     6.612 HEAT: -155.3284
 CYCLE:   122 TIME:   0.049 TIME LEFT:  2.00D  GRAD.:     6.959 HEAT: -155.3885
 CYCLE:   123 TIME:   0.044 TIME LEFT:  2.00D  GRAD.:     9.530 HEAT: -154.8739
 CYCLE:   124 TIME:   0.044 TIME LEFT:  2.00D  GRAD.:     8.790 HEAT: -154.5096
 CYCLE:   125 TIME:   0.066 TIME LEFT:  2.00D  GRAD.:     7.439 HEAT: -154.8600
 CYCLE:   126 TIME:   0.043 TIME LEFT:  2.00D  GRAD.:     5.424 HEAT: -154.7866
 CYCLE:   127 TIME:   0.040 TIME LEFT:  2.00D  GRAD.:     5.397 HEAT: -154.6453
 CYCLE:   128 TIME:   0.042 TIME LEFT:  2.00D  GRAD.:    10.596 HEAT: -154.5084
 CYCLE:   129 TIME:   0.044 TIME LEFT:  2.00D  GRAD.:     7.134 HEAT: -154.5090
 CYCLE:   130 TIME:   0.051 TIME LEFT:  2.00D  GRAD.:     7.148 HEAT: -154.4544
 CYCLE:   131 TIME:   0.050 TIME LEFT:  2.00D  GRAD.:    11.441 HEAT: -154.4201
 CYCLE:   132 TIME:   0.046 TIME LEFT:  2.00D  GRAD.:     8.107 HEAT: -154.4023
 CYCLE:   133 TIME:   0.054 TIME LEFT:  2.00D  GRAD.:     8.632 HEAT: -154.3881
 CYCLE:   134 TIME:   0.044 TIME LEFT:  2.00D  GRAD.:     6.805 HEAT: -154.5048
 CYCLE:   135 TIME:   0.052 TIME LEFT:  2.00D  GRAD.:     7.047 HEAT: -154.4315
 CYCLE:   136 TIME:   0.071 TIME LEFT:  2.00D  GRAD.:     6.474 HEAT: -154.4866
 CYCLE:   137 TIME:   0.041 TIME LEFT:  2.00D  GRAD.:     7.010 HEAT: -154.5075
 CYCLE:   138 TIME:   0.046 TIME LEFT:  2.00D  GRAD.:     6.927 HEAT: -154.9143
 CYCLE:   139 TIME:   0.058 TIME LEFT:  2.00D  GRAD.:     7.427 HEAT: -154.8541
 CYCLE:   140 TIME:   0.052 TIME LEFT:  2.00D  GRAD.:     7.727 HEAT: -154.8780
 CYCLE:   141 TIME:   0.056 TIME LEFT:  2.00D  GRAD.:    10.922 HEAT: -155.1273
 CYCLE:   142 TIME:   0.048 TIME LEFT:  2.00D  GRAD.:     9.103 HEAT: -155.1940
 CYCLE:   143 TIME:   0.043 TIME LEFT:  2.00D  GRAD.:     6.998 HEAT: -155.2432
 CYCLE:   144 TIME:   0.044 TIME LEFT:  2.00D  GRAD.:    10.468 HEAT: -155.2317
 CYCLE:   145 TIME:   0.040 TIME LEFT:  2.00D  GRAD.:     7.859 HEAT: -155.2882
 CYCLE:   146 TIME:   0.040 TIME LEFT:  2.00D  GRAD.:     4.640 HEAT: -155.2331
 CYCLE:   147 TIME:   0.057 TIME LEFT:  2.00D  GRAD.:     5.069 HEAT: -155.3005
 CYCLE:   148 TIME:   0.049 TIME LEFT:  2.00D  GRAD.:     6.384 HEAT: -155.1733
 CYCLE:   149 TIME:   0.042 TIME LEFT:  2.00D  GRAD.:    11.949 HEAT: -155.0408
 CYCLE:   150 TIME:   0.039 TIME LEFT:  2.00D  GRAD.:     5.395 HEAT: -155.2014
 CYCLE:   151 TIME:   0.040 TIME LEFT:  2.00D  GRAD.:     7.475 HEAT: -155.2795
 CYCLE:   152 TIME:   0.065 TIME LEFT:  2.00D  GRAD.:     8.762 HEAT: -155.2191
 CYCLE:   153 TIME:   0.068 TIME LEFT:  2.00D  GRAD.:     8.980 HEAT: -155.2439
 CYCLE:   154 TIME:   0.041 TIME LEFT:  2.00D  GRAD.:     6.738 HEAT: -155.3401
 CYCLE:   155 TIME:   0.062 TIME LEFT:  2.00D  GRAD.:     5.788 HEAT: -155.3730
 CYCLE:   156 TIME:   0.044 TIME LEFT:  2.00D  GRAD.:     7.116 HEAT: -155.3366
 CYCLE:   157 TIME:   0.048 TIME LEFT:  2.00D  GRAD.:     9.207 HEAT: -155.3284
 CYCLE:   158 TIME:   0.048 TIME LEFT:  2.00D  GRAD.:     6.849 HEAT: -155.3451
 CYCLE:   159 TIME:   0.049 TIME LEFT:  2.00D  GRAD.:     5.338 HEAT: -155.4517
 CYCLE:   160 TIME:   0.040 TIME LEFT:  2.00D  GRAD.:     5.901 HEAT: -155.4779
 CYCLE:   161 TIME:   0.047 TIME LEFT:  2.00D  GRAD.:     8.044 HEAT: -155.4702
 CYCLE:   162 TIME:   0.051 TIME LEFT:  2.00D  GRAD.:     7.819 HEAT: -155.3960
 CYCLE:   163 TIME:   0.057 TIME LEFT:  2.00D  GRAD.:     4.716 HEAT: -155.4065
 CYCLE:   164 TIME:   0.040 TIME LEFT:  2.00D  GRAD.:     5.357 HEAT: -155.4725
 CYCLE:   165 TIME:   0.040 TIME LEFT:  2.00D  GRAD.:     6.469 HEAT: -155.4736
 CYCLE:   166 TIME:   0.040 TIME LEFT:  2.00D  GRAD.:     5.773 HEAT: -155.5054
 CYCLE:   167 TIME:   0.053 TIME LEFT:  2.00D  GRAD.:     5.058 HEAT: -155.5110
 CYCLE:   168 TIME:   0.042 TIME LEFT:  2.00D  GRAD.:     6.714 HEAT: -155.5473
 CYCLE:   169 TIME:   0.052 TIME LEFT:  2.00D  GRAD.:     6.698 HEAT: -155.5754
 CYCLE:   170 TIME:   0.042 TIME LEFT:  2.00D  GRAD.:     7.070 HEAT: -155.6797
 CYCLE:   171 TIME:   0.058 TIME LEFT:  2.00D  GRAD.:     6.127 HEAT: -155.9657
 CYCLE:   172 TIME:   0.051 TIME LEFT:  2.00D  GRAD.:     7.291 HEAT: -155.9750
 CYCLE:   173 TIME:   0.049 TIME LEFT:  2.00D  GRAD.:     7.337 HEAT: -155.8765
 CYCLE:   174 TIME:   0.065 TIME LEFT:  2.00D  GRAD.:     9.199 HEAT: -155.8225
 CYCLE:   175 TIME:   0.050 TIME LEFT:  2.00D  GRAD.:    10.411 HEAT: -155.9558
 CYCLE:   176 TIME:   0.051 TIME LEFT:  2.00D  GRAD.:    19.531 HEAT: -155.9806
 CYCLE:   177 TIME:   0.068 TIME LEFT:  2.00D  GRAD.:    10.556 HEAT: -156.0728
 CYCLE:   178 TIME:   0.048 TIME LEFT:  2.00D  GRAD.:    17.535 HEAT: -156.1639
 CYCLE:   179 TIME:   0.063 TIME LEFT:  2.00D  GRAD.:     9.182 HEAT: -156.0987
 CYCLE:   180 TIME:   0.048 TIME LEFT:  2.00D  GRAD.:     7.237 HEAT: -156.1834
 CYCLE:   181 TIME:   0.046 TIME LEFT:  2.00D  GRAD.:     7.315 HEAT: -156.2291
 CYCLE:   182 TIME:   0.043 TIME LEFT:  2.00D  GRAD.:    22.059 HEAT: -156.3234
 CYCLE:   183 TIME:   0.044 TIME LEFT:  2.00D  GRAD.:     9.367 HEAT: -156.5849
 CYCLE:   184 TIME:   0.041 TIME LEFT:  2.00D  GRAD.:     8.296 HEAT: -156.5012
 CYCLE:   185 TIME:   0.048 TIME LEFT:  2.00D  GRAD.:    10.232 HEAT: -156.7445
 CYCLE:   186 TIME:   0.050 TIME LEFT:  2.00D  GRAD.:    16.260 HEAT: -156.8918
 CYCLE:   187 TIME:   0.060 TIME LEFT:  2.00D  GRAD.:    10.365 HEAT: -156.8126
 CYCLE:   188 TIME:   0.049 TIME LEFT:  2.00D  GRAD.:    11.985 HEAT: -157.0803
 CYCLE:   189 TIME:   0.049 TIME LEFT:  2.00D  GRAD.:    14.692 HEAT: -157.1348
 CYCLE:   190 TIME:   0.049 TIME LEFT:  2.00D  GRAD.:    23.606 HEAT: -157.1094
 CYCLE:   191 TIME:   0.042 TIME LEFT:  2.00D  GRAD.:     9.605 HEAT: -157.3778
 CYCLE:   192 TIME:   0.054 TIME LEFT:  2.00D  GRAD.:    11.962 HEAT: -157.3932
 CYCLE:   193 TIME:   0.051 TIME LEFT:  2.00D  GRAD.:    13.620 HEAT: -157.4972
 CYCLE:   194 TIME:   0.055 TIME LEFT:  2.00D  GRAD.:    15.098 HEAT: -157.7359
 CYCLE:   195 TIME:   0.045 TIME LEFT:  2.00D  GRAD.:     8.582 HEAT: -157.8145
 CYCLE:   196 TIME:   0.041 TIME LEFT:  2.00D  GRAD.:     8.561 HEAT: -157.8678
 CYCLE:   197 TIME:   0.041 TIME LEFT:  2.00D  GRAD.:     8.734 HEAT: -157.9486
 CYCLE:   198 TIME:   0.078 TIME LEFT:  2.00D  GRAD.:    13.701 HEAT: -157.9906
 CYCLE:   199 TIME:   0.044 TIME LEFT:  2.00D  GRAD.:     7.854 HEAT: -158.0715
 CYCLE:   200 TIME:   0.053 TIME LEFT:  2.00D  GRAD.:     9.786 HEAT: -158.0892
 CYCLE:   201 TIME:   0.045 TIME LEFT:  2.00D  GRAD.:     9.542 HEAT: -158.1448
 CYCLE:   202 TIME:   0.046 TIME LEFT:  2.00D  GRAD.:     5.482 HEAT: -158.1544
 CYCLE:   203 TIME:   0.044 TIME LEFT:  2.00D  GRAD.:     5.783 HEAT: -158.1830
 CYCLE:   204 TIME:   0.048 TIME LEFT:  2.00D  GRAD.:     6.569 HEAT: -158.2175
 CYCLE:   205 TIME:   0.054 TIME LEFT:  2.00D  GRAD.:     7.451 HEAT: -158.2514
 CYCLE:   206 TIME:   0.040 TIME LEFT:  2.00D  GRAD.:     4.397 HEAT: -158.2744
 CYCLE:   207 TIME:   0.041 TIME LEFT:  2.00D  GRAD.:     4.782 HEAT: -158.3192
 CYCLE:   208 TIME:   0.042 TIME LEFT:  2.00D  GRAD.:     5.341 HEAT: -158.3330
 CYCLE:   209 TIME:   0.042 TIME LEFT:  2.00D  GRAD.:    10.396 HEAT: -158.3116
 CYCLE:   210 TIME:   0.049 TIME LEFT:  2.00D  GRAD.:     4.162 HEAT: -158.3250
 CYCLE:   211 TIME:   0.046 TIME LEFT:  2.00D  GRAD.:     4.352 HEAT: -158.3527
 CYCLE:   212 TIME:   0.046 TIME LEFT:  2.00D  GRAD.:     6.336 HEAT: -158.3928
 CYCLE:   213 TIME:   0.044 TIME LEFT:  2.00D  GRAD.:     8.281 HEAT: -158.5702
 CYCLE:   214 TIME:   0.043 TIME LEFT:  2.00D  GRAD.:    11.429 HEAT: -158.6222
 CYCLE:   215 TIME:   0.055 TIME LEFT:  2.00D  GRAD.:     5.782 HEAT: -158.6485
 CYCLE:   216 TIME:   0.044 TIME LEFT:  2.00D  GRAD.:     5.334 HEAT: -158.5714
 CYCLE:   217 TIME:   0.040 TIME LEFT:  2.00D  GRAD.:     6.476 HEAT: -158.5985
 CYCLE:   218 TIME:   0.041 TIME LEFT:  2.00D  GRAD.:    11.276 HEAT: -158.6086
 CYCLE:   219 TIME:   0.040 TIME LEFT:  2.00D  GRAD.:     5.101 HEAT: -158.6906
 CYCLE:   220 TIME:   0.050 TIME LEFT:  2.00D  GRAD.:     3.978 HEAT: -158.7579
 CYCLE:   221 TIME:   0.044 TIME LEFT:  2.00D  GRAD.:     4.621 HEAT: -158.7728
 CYCLE:   222 TIME:   0.043 TIME LEFT:  2.00D  GRAD.:     6.225 HEAT: -158.8083
 CYCLE:   223 TIME:   0.043 TIME LEFT:  2.00D  GRAD.:    10.527 HEAT: -158.8165
 CYCLE:   224 TIME:   0.044 TIME LEFT:  2.00D  GRAD.:     4.395 HEAT: -158.8460
 CYCLE:   225 TIME:   0.050 TIME LEFT:  2.00D  GRAD.:     4.248 HEAT: -158.7401
 CYCLE:   226 TIME:   0.051 TIME LEFT:  2.00D  GRAD.:     4.617 HEAT: -158.7559
 CYCLE:   227 TIME:   0.051 TIME LEFT:  2.00D  GRAD.:     7.559 HEAT: -158.6881
 CYCLE:   228 TIME:   0.050 TIME LEFT:  2.00D  GRAD.:     5.567 HEAT: -158.7332
 CYCLE:   229 TIME:   0.046 TIME LEFT:  2.00D  GRAD.:     4.209 HEAT: -158.7562
 CYCLE:   230 TIME:   0.042 TIME LEFT:  2.00D  GRAD.:     4.775 HEAT: -158.7797
 CYCLE:   231 TIME:   0.051 TIME LEFT:  2.00D  GRAD.:     7.397 HEAT: -158.7796
 CYCLE:   232 TIME:   0.043 TIME LEFT:  2.00D  GRAD.:     4.639 HEAT: -158.8046
 CYCLE:   233 TIME:   0.043 TIME LEFT:  2.00D  GRAD.:     4.039 HEAT: -158.8868
 CYCLE:   234 TIME:   0.050 TIME LEFT:  2.00D  GRAD.:     5.585 HEAT: -158.8933
 CYCLE:   235 TIME:   0.042 TIME LEFT:  2.00D  GRAD.:     4.415 HEAT: -158.9205
 CYCLE:   236 TIME:   0.041 TIME LEFT:  2.00D  GRAD.:     6.264 HEAT: -158.9609
 CYCLE:   237 TIME:   0.042 TIME LEFT:  2.00D  GRAD.:     4.273 HEAT: -159.0117
 CYCLE:   238 TIME:   0.043 TIME LEFT:  2.00D  GRAD.:     3.742 HEAT: -159.0243
 CYCLE:   239 TIME:   0.051 TIME LEFT:  2.00D  GRAD.:     6.230 HEAT: -159.0543
 CYCLE:   240 TIME:   0.048 TIME LEFT:  2.00D  GRAD.:     5.545 HEAT: -159.0532
 CYCLE:   241 TIME:   0.039 TIME LEFT:  2.00D  GRAD.:     3.542 HEAT: -159.0730
 CYCLE:   242 TIME:   0.044 TIME LEFT:  2.00D  GRAD.:     2.729 HEAT: -159.1124
 CYCLE:   243 TIME:   0.043 TIME LEFT:  2.00D  GRAD.:     3.260 HEAT: -159.1338
 CYCLE:   244 TIME:   0.048 TIME LEFT:  2.00D  GRAD.:     8.817 HEAT: -159.1555
 CYCLE:   245 TIME:   0.038 TIME LEFT:  2.00D  GRAD.:     2.534 HEAT: -159.1769
 CYCLE:   246 TIME:   0.039 TIME LEFT:  2.00D  GRAD.:     2.146 HEAT: -159.2196
 CYCLE:   247 TIME:   0.041 TIME LEFT:  2.00D  GRAD.:     2.946 HEAT: -159.2474
 CYCLE:   248 TIME:   0.043 TIME LEFT:  2.00D  GRAD.:     5.578 HEAT: -159.2522
 CYCLE:   249 TIME:   0.038 TIME LEFT:  2.00D  GRAD.:     2.221 HEAT: -159.2680
 CYCLE:   250 TIME:   0.048 TIME LEFT:  2.00D  GRAD.:     1.757 HEAT: -159.2809
 CYCLE:   251 TIME:   0.048 TIME LEFT:  2.00D  GRAD.:     1.863 HEAT: -159.2882
 CYCLE:   252 TIME:   0.050 TIME LEFT:  2.00D  GRAD.:     2.767 HEAT: -159.3511
 CYCLE:   253 TIME:   0.046 TIME LEFT:  2.00D  GRAD.:     4.653 HEAT: -159.3635
 CYCLE:   254 TIME:   0.047 TIME LEFT:  2.00D  GRAD.:     1.756 HEAT: -159.3714
 CYCLE:   255 TIME:   0.050 TIME LEFT:  2.00D  GRAD.:     1.637 HEAT: -159.3738
 CYCLE:   256 TIME:   0.045 TIME LEFT:  2.00D  GRAD.:     2.102 HEAT: -159.3904
 CYCLE:   257 TIME:   0.040 TIME LEFT:  2.00D  GRAD.:     2.744 HEAT: -159.4698
 CYCLE:   258 TIME:   0.040 TIME LEFT:  2.00D  GRAD.:     3.211 HEAT: -159.4838
 CYCLE:   259 TIME:   0.065 TIME LEFT:  2.00D  GRAD.:     2.783 HEAT: -159.4897
 CYCLE:   260 TIME:   0.047 TIME LEFT:  2.00D  GRAD.:     2.107 HEAT: -159.5105
 CYCLE:   261 TIME:   0.059 TIME LEFT:  2.00D  GRAD.:     2.325 HEAT: -159.5425
 CYCLE:   262 TIME:   0.042 TIME LEFT:  2.00D  GRAD.:     3.837 HEAT: -159.5633
 CYCLE:   263 TIME:   0.047 TIME LEFT:  2.00D  GRAD.:     2.224 HEAT: -159.5648
 CYCLE:   264 TIME:   0.044 TIME LEFT:  2.00D  GRAD.:     2.205 HEAT: -159.5540
 CYCLE:   265 TIME:   0.048 TIME LEFT:  2.00D  GRAD.:     2.307 HEAT: -159.5574
 CYCLE:   266 TIME:   0.073 TIME LEFT:  2.00D  GRAD.:     2.928 HEAT: -159.5740
 CYCLE:   267 TIME:   0.062 TIME LEFT:  2.00D  GRAD.:     5.250 HEAT: -159.6045
 CYCLE:   268 TIME:   0.048 TIME LEFT:  2.00D  GRAD.:     2.689 HEAT: -159.6160
 CYCLE:   269 TIME:   0.041 TIME LEFT:  2.00D  GRAD.:     2.201 HEAT: -159.6288
 CYCLE:   270 TIME:   0.041 TIME LEFT:  2.00D  GRAD.:     3.050 HEAT: -159.6338
 CYCLE:   271 TIME:   0.041 TIME LEFT:  2.00D  GRAD.:     4.116 HEAT: -159.5754
 CYCLE:   272 TIME:   0.042 TIME LEFT:  2.00D  GRAD.:     3.924 HEAT: -159.4665
 CYCLE:   273 TIME:   0.043 TIME LEFT:  2.00D  GRAD.:     4.155 HEAT: -159.3864
 CYCLE:   274 TIME:   0.048 TIME LEFT:  2.00D  GRAD.:     5.676 HEAT: -159.3471
 CYCLE:   275 TIME:   0.057 TIME LEFT:  2.00D  GRAD.:    16.032 HEAT: -159.2928
 CYCLE:   276 TIME:   0.072 TIME LEFT:  2.00D  GRAD.:     8.148 HEAT: -159.4641
 CYCLE:   277 TIME:   0.044 TIME LEFT:  2.00D  GRAD.:     5.132 HEAT: -159.3385
 CYCLE:   278 TIME:   0.040 TIME LEFT:  2.00D  GRAD.:     3.441 HEAT: -159.3742
 CYCLE:   279 TIME:   0.047 TIME LEFT:  2.00D  GRAD.:    11.545 HEAT: -159.4420
 CYCLE:   280 TIME:   0.041 TIME LEFT:  2.00D  GRAD.:     2.028 HEAT: -159.5314
 CYCLE:   281 TIME:   0.039 TIME LEFT:  2.00D  GRAD.:     1.625 HEAT: -159.5458
 CYCLE:   282 TIME:   0.065 TIME LEFT:  2.00D  GRAD.:     2.714 HEAT: -159.4021
 CYCLE:   283 TIME:   0.040 TIME LEFT:  2.00D  GRAD.:     3.419 HEAT: -159.6208
 CYCLE:   284 TIME:   0.054 TIME LEFT:  2.00D  GRAD.:     2.350 HEAT: -159.6275
 CYCLE:   285 TIME:   0.040 TIME LEFT:  2.00D  GRAD.:     2.530 HEAT: -159.5010
 CYCLE:   286 TIME:   0.044 TIME LEFT:  2.00D  GRAD.:     2.583 HEAT: -159.5555
 CYCLE:   287 TIME:   0.043 TIME LEFT:  2.00D  GRAD.:     3.739 HEAT: -159.7282
 CYCLE:   288 TIME:   0.041 TIME LEFT:  2.00D  GRAD.:     1.606 HEAT: -159.7375
 CYCLE:   289 TIME:   0.041 TIME LEFT:  2.00D  GRAD.:     1.696 HEAT: -159.5878
 CYCLE:   290 TIME:   0.046 TIME LEFT:  2.00D  GRAD.:     2.034 HEAT: -159.5887
 CYCLE:   291 TIME:   0.046 TIME LEFT:  2.00D  GRAD.:     3.526 HEAT: -159.4619
 CYCLE:   292 TIME:   0.041 TIME LEFT:  2.00D  GRAD.:     1.843 HEAT: -159.5204
 CYCLE:   293 TIME:   0.059 TIME LEFT:  2.00D  GRAD.:     1.725 HEAT: -159.5220
 CYCLE:   294 TIME:   0.043 TIME LEFT:  2.00D  GRAD.:     2.086 HEAT: -159.5278
 CYCLE:   295 TIME:   0.048 TIME LEFT:  2.00D  GRAD.:     3.788 HEAT: -159.5800
 CYCLE:   296 TIME:   0.050 TIME LEFT:  2.00D  GRAD.:     2.420 HEAT: -159.5803
 CYCLE:   297 TIME:   0.044 TIME LEFT:  2.00D  GRAD.:     2.669 HEAT: -159.6103
 CYCLE:   298 TIME:   0.054 TIME LEFT:  2.00D  GRAD.:     3.119 HEAT: -159.6253
 CYCLE:   299 TIME:   0.041 TIME LEFT:  2.00D  GRAD.:     4.047 HEAT: -159.6398
 CYCLE:   300 TIME:   0.041 TIME LEFT:  2.00D  GRAD.:     3.892 HEAT: -159.6279
 CYCLE:   301 TIME:   0.058 TIME LEFT:  2.00D  GRAD.:     5.524 HEAT: -159.6995
 CYCLE:   302 TIME:   0.045 TIME LEFT:  2.00D  GRAD.:     4.722 HEAT: -159.7468
 CYCLE:   303 TIME:   0.067 TIME LEFT:  2.00D  GRAD.:     6.917 HEAT: -159.6530
 CYCLE:   304 TIME:   0.078 TIME LEFT:  2.00D  GRAD.:     6.939 HEAT: -159.6999
 CYCLE:   305 TIME:   0.042 TIME LEFT:  2.00D  GRAD.:     4.551 HEAT: -159.6434
 CYCLE:   306 TIME:   0.052 TIME LEFT:  2.00D  GRAD.:     4.891 HEAT: -159.6662
 CYCLE:   307 TIME:   0.052 TIME LEFT:  2.00D  GRAD.:     4.515 HEAT: -159.6294
 CYCLE:   308 TIME:   0.045 TIME LEFT:  2.00D  GRAD.:     3.195 HEAT: -159.6544
 CYCLE:   309 TIME:   0.051 TIME LEFT:  2.00D  GRAD.:     3.153 HEAT: -159.6272
 CYCLE:   310 TIME:   0.043 TIME LEFT:  2.00D  GRAD.:     2.229 HEAT: -159.6608
 CYCLE:   311 TIME:   0.042 TIME LEFT:  2.00D  GRAD.:     2.737 HEAT: -159.6728
 CYCLE:   312 TIME:   0.079 TIME LEFT:  2.00D  GRAD.:     3.723 HEAT: -159.6792
 CYCLE:   313 TIME:   0.061 TIME LEFT:  2.00D  GRAD.:    18.165 HEAT: -159.5259
 CYCLE:   314 TIME:   0.049 TIME LEFT:  2.00D  GRAD.:     2.921 HEAT: -159.7072
 CYCLE:   315 TIME:   0.055 TIME LEFT:  2.00D  GRAD.:     2.322 HEAT: -159.7014
 CYCLE:   316 TIME:   0.046 TIME LEFT:  2.00D  GRAD.:     4.152 HEAT: -159.7110
 CYCLE:   317 TIME:   0.047 TIME LEFT:  2.00D  GRAD.:     3.017 HEAT: -159.7737
 CYCLE:   318 TIME:   0.040 TIME LEFT:  2.00D  GRAD.:     2.315 HEAT: -159.7875
 CYCLE:   319 TIME:   0.042 TIME LEFT:  2.00D  GRAD.:     3.159 HEAT: -159.7363
 CYCLE:   320 TIME:   0.058 TIME LEFT:  2.00D  GRAD.:     3.590 HEAT: -159.7481
 CYCLE:   321 TIME:   0.068 TIME LEFT:  2.00D  GRAD.:     2.149 HEAT: -159.7557
 CYCLE:   322 TIME:   0.051 TIME LEFT:  2.00D  GRAD.:     2.183 HEAT: -159.7518
 CYCLE:   323 TIME:   0.055 TIME LEFT:  2.00D  GRAD.:     2.922 HEAT: -159.7714
 CYCLE:   324 TIME:   0.047 TIME LEFT:  2.00D  GRAD.:     3.826 HEAT: -159.8011
 CYCLE:   325 TIME:   0.044 TIME LEFT:  2.00D  GRAD.:     2.278 HEAT: -159.8089
 CYCLE:   326 TIME:   0.049 TIME LEFT:  2.00D  GRAD.:     2.855 HEAT: -159.8006
 CYCLE:   327 TIME:   0.058 TIME LEFT:  2.00D  GRAD.:     2.418 HEAT: -159.8124
 CYCLE:   328 TIME:   0.049 TIME LEFT:  2.00D  GRAD.:     2.773 HEAT: -159.8371
 CYCLE:   329 TIME:   0.045 TIME LEFT:  2.00D  GRAD.:     1.572 HEAT: -159.8917
 CYCLE:   330 TIME:   0.048 TIME LEFT:  2.00D  GRAD.:     1.865 HEAT: -159.8983
 CYCLE:   331 TIME:   0.047 TIME LEFT:  2.00D  GRAD.:     2.578 HEAT: -159.8887
 CYCLE:   332 TIME:   0.047 TIME LEFT:  2.00D  GRAD.:     4.621 HEAT: -159.8942
 CYCLE:   333 TIME:   0.048 TIME LEFT:  2.00D  GRAD.:     2.094 HEAT: -159.9038
 CYCLE:   334 TIME:   0.049 TIME LEFT:  2.00D  GRAD.:     2.132 HEAT: -159.8278
 CYCLE:   335 TIME:   0.055 TIME LEFT:  2.00D  GRAD.:     2.334 HEAT: -159.8285
 CYCLE:   336 TIME:   0.042 TIME LEFT:  2.00D  GRAD.:     2.660 HEAT: -159.8197
 CYCLE:   337 TIME:   0.049 TIME LEFT:  2.00D  GRAD.:     1.896 HEAT: -159.8307
 CYCLE:   338 TIME:   0.041 TIME LEFT:  2.00D  GRAD.:     1.963 HEAT: -159.8177
 CYCLE:   339 TIME:   0.042 TIME LEFT:  2.00D  GRAD.:     2.745 HEAT: -159.8404
 CYCLE:   340 TIME:   0.040 TIME LEFT:  2.00D  GRAD.:     1.966 HEAT: -159.8480
 CYCLE:   341 TIME:   0.043 TIME LEFT:  2.00D  GRAD.:     1.662 HEAT: -159.8367
 CYCLE:   342 TIME:   0.045 TIME LEFT:  2.00D  GRAD.:     2.220 HEAT: -159.8387
 CYCLE:   343 TIME:   0.044 TIME LEFT:  2.00D  GRAD.:     3.606 HEAT: -159.8437
 CYCLE:   344 TIME:   0.044 TIME LEFT:  2.00D  GRAD.:     2.003 HEAT: -159.8459
 CYCLE:   345 TIME:   0.046 TIME LEFT:  2.00D  GRAD.:     1.705 HEAT: -159.8467
 CYCLE:   346 TIME:   0.040 TIME LEFT:  2.00D  GRAD.:     1.717 HEAT: -159.8468
 CYCLE:   347 TIME:   0.047 TIME LEFT:  2.00D  GRAD.:     3.356 HEAT: -159.8829
 CYCLE:   348 TIME:   0.042 TIME LEFT:  2.00D  GRAD.:     2.569 HEAT: -159.8843
 CYCLE:   349 TIME:   0.040 TIME LEFT:  2.00D  GRAD.:     1.545 HEAT: -159.8841
 CYCLE:   350 TIME:   0.043 TIME LEFT:  2.00D  GRAD.:     1.596 HEAT: -159.8837
 CYCLE:   351 TIME:   0.049 TIME LEFT:  2.00D  GRAD.:     2.177 HEAT: -159.8875
 CYCLE:   352 TIME:   0.054 TIME LEFT:  2.00D  GRAD.:     4.207 HEAT: -159.9312
 CYCLE:   353 TIME:   0.048 TIME LEFT:  2.00D  GRAD.:     1.846 HEAT: -159.9280
 CYCLE:   354 TIME:   0.050 TIME LEFT:  2.00D  GRAD.:     1.878 HEAT: -159.9271
 CYCLE:   355 TIME:   0.049 TIME LEFT:  2.00D  GRAD.:     2.241 HEAT: -159.9430
 CYCLE:   356 TIME:   0.047 TIME LEFT:  2.00D  GRAD.:     3.690 HEAT: -159.9418
 CYCLE:   357 TIME:   0.046 TIME LEFT:  2.00D  GRAD.:     2.880 HEAT: -159.9638
 CYCLE:   358 TIME:   0.042 TIME LEFT:  2.00D  GRAD.:     1.621 HEAT: -159.9691
 CYCLE:   359 TIME:   0.044 TIME LEFT:  2.00D  GRAD.:     1.750 HEAT: -159.9735
 CYCLE:   360 TIME:   0.050 TIME LEFT:  2.00D  GRAD.:     2.200 HEAT: -159.9758
 CYCLE:   361 TIME:   0.062 TIME LEFT:  2.00D  GRAD.:     2.358 HEAT: -159.9634
 CYCLE:   362 TIME:   0.042 TIME LEFT:  2.00D  GRAD.:     2.932 HEAT: -159.9553
 CYCLE:   363 TIME:   0.039 TIME LEFT:  2.00D  GRAD.:     1.779 HEAT: -159.9583
 CYCLE:   364 TIME:   0.041 TIME LEFT:  2.00D  GRAD.:     1.540 HEAT: -159.9732
 CYCLE:   365 TIME:   0.040 TIME LEFT:  2.00D  GRAD.:     2.049 HEAT: -159.9762
 CYCLE:   366 TIME:   0.050 TIME LEFT:  2.00D  GRAD.:     1.877 HEAT: -159.9839
 CYCLE:   367 TIME:   0.042 TIME LEFT:  2.00D  GRAD.:     3.759 HEAT: -159.9881
 CYCLE:   368 TIME:   0.039 TIME LEFT:  2.00D  GRAD.:     1.623 HEAT: -159.9994
 CYCLE:   369 TIME:   0.042 TIME LEFT:  2.00D  GRAD.:     1.391 HEAT: -160.0039
 CYCLE:   370 TIME:   0.049 TIME LEFT:  2.00D  GRAD.:     1.512 HEAT: -160.0057
 CYCLE:   371 TIME:   0.053 TIME LEFT:  2.00D  GRAD.:     2.368 HEAT: -160.0204
 CYCLE:   372 TIME:   0.050 TIME LEFT:  2.00D  GRAD.:     2.321 HEAT: -160.0305
 CYCLE:   373 TIME:   0.044 TIME LEFT:  2.00D  GRAD.:     1.294 HEAT: -160.0328
 CYCLE:   374 TIME:   0.040 TIME LEFT:  2.00D  GRAD.:     1.533 HEAT: -160.0444
 CYCLE:   375 TIME:   0.050 TIME LEFT:  2.00D  GRAD.:     1.821 HEAT: -160.0465
 CYCLE:   376 TIME:   0.052 TIME LEFT:  2.00D  GRAD.:     3.094 HEAT: -160.0543
 CYCLE:   377 TIME:   0.049 TIME LEFT:  2.00D  GRAD.:     1.132 HEAT: -160.0416
 CYCLE:   378 TIME:   0.049 TIME LEFT:  2.00D  GRAD.:     1.232 HEAT: -160.0615
 CYCLE:   379 TIME:   0.047 TIME LEFT:  2.00D  GRAD.:     1.658 HEAT: -160.0778
 CYCLE:   380 TIME:   0.053 TIME LEFT:  2.00D  GRAD.:     2.703 HEAT: -160.0778
 CYCLE:   381 TIME:   0.047 TIME LEFT:  2.00D  GRAD.:     2.185 HEAT: -160.1077
 CYCLE:   382 TIME:   0.053 TIME LEFT:  2.00D  GRAD.:     1.657 HEAT: -160.1114
 CYCLE:   383 TIME:   0.051 TIME LEFT:  2.00D  GRAD.:     2.055 HEAT: -160.1264
 CYCLE:   384 TIME:   0.043 TIME LEFT:  2.00D  GRAD.:     3.239 HEAT: -160.1287
 CYCLE:   385 TIME:   0.043 TIME LEFT:  2.00D  GRAD.:     2.297 HEAT: -160.1449
 CYCLE:   386 TIME:   0.040 TIME LEFT:  2.00D  GRAD.:     1.716 HEAT: -160.1672
 CYCLE:   387 TIME:   0.050 TIME LEFT:  2.00D  GRAD.:     4.215 HEAT: -160.1782
 CYCLE:   388 TIME:   0.054 TIME LEFT:  2.00D  GRAD.:     2.269 HEAT: -160.1782
 CYCLE:   389 TIME:   0.050 TIME LEFT:  2.00D  GRAD.:     1.838 HEAT: -160.1684
 CYCLE:   390 TIME:   0.052 TIME LEFT:  2.00D  GRAD.:     2.132 HEAT: -160.1694
 CYCLE:   391 TIME:   0.051 TIME LEFT:  2.00D  GRAD.:     2.731 HEAT: -160.1905
 CYCLE:   392 TIME:   0.052 TIME LEFT:  2.00D  GRAD.:     2.663 HEAT: -160.2342
 CYCLE:   393 TIME:   0.050 TIME LEFT:  2.00D  GRAD.:     1.861 HEAT: -160.2436
 CYCLE:   394 TIME:   0.048 TIME LEFT:  2.00D  GRAD.:     1.909 HEAT: -160.2527
 CYCLE:   395 TIME:   0.044 TIME LEFT:  2.00D  GRAD.:     2.947 HEAT: -160.2695
 CYCLE:   396 TIME:   0.040 TIME LEFT:  2.00D  GRAD.:     1.717 HEAT: -160.2957
 CYCLE:   397 TIME:   0.052 TIME LEFT:  2.00D  GRAD.:     1.638 HEAT: -160.2905
 CYCLE:   398 TIME:   0.050 TIME LEFT:  2.00D  GRAD.:     2.028 HEAT: -160.2836
 CYCLE:   399 TIME:   0.044 TIME LEFT:  2.00D  GRAD.:     2.272 HEAT: -160.2871
 CYCLE:   400 TIME:   0.081 TIME LEFT:  2.00D  GRAD.:     3.106 HEAT: -160.2955
 CYCLE:   401 TIME:   0.038 TIME LEFT:  2.00D  GRAD.:     1.795 HEAT: -160.2983
 CYCLE:   402 TIME:   0.048 TIME LEFT:  2.00D  GRAD.:     1.994 HEAT: -160.3055
 CYCLE:   403 TIME:   0.048 TIME LEFT:  2.00D  GRAD.:     2.263 HEAT: -160.3092
 CYCLE:   404 TIME:   0.070 TIME LEFT:  2.00D  GRAD.:     2.668 HEAT: -160.3060
 CYCLE:   405 TIME:   0.041 TIME LEFT:  2.00D  GRAD.:     3.045 HEAT: -160.3188
 CYCLE:   406 TIME:   0.044 TIME LEFT:  2.00D  GRAD.:     3.224 HEAT: -160.3256
 CYCLE:   407 TIME:   0.059 TIME LEFT:  2.00D  GRAD.:     4.646 HEAT: -160.3526
 CYCLE:   408 TIME:   0.047 TIME LEFT:  2.00D  GRAD.:     2.761 HEAT: -160.3417
 CYCLE:   409 TIME:   0.062 TIME LEFT:  2.00D  GRAD.:     3.781 HEAT: -160.3415
 CYCLE:   410 TIME:   0.051 TIME LEFT:  2.00D  GRAD.:     3.195 HEAT: -160.3605
 CYCLE:   411 TIME:   0.046 TIME LEFT:  2.00D  GRAD.:     2.577 HEAT: -160.3789
 CYCLE:   412 TIME:   0.045 TIME LEFT:  2.00D  GRAD.:     3.690 HEAT: -160.3286
 CYCLE:   413 TIME:   0.045 TIME LEFT:  2.00D  GRAD.:     3.321 HEAT: -160.2170
 CYCLE:   414 TIME:   0.053 TIME LEFT:  2.00D  GRAD.:     2.280 HEAT: -160.2257
 CYCLE:   415 TIME:   0.052 TIME LEFT:  2.00D  GRAD.:     3.248 HEAT: -160.2726
 CYCLE:   416 TIME:   0.066 TIME LEFT:  2.00D  GRAD.:     3.478 HEAT: -160.2778
 CYCLE:   417 TIME:   0.050 TIME LEFT:  2.00D  GRAD.:     1.701 HEAT: -160.2753
 CYCLE:   418 TIME:   0.042 TIME LEFT:  2.00D  GRAD.:     1.395 HEAT: -160.2803
 CYCLE:   419 TIME:   0.041 TIME LEFT:  2.00D  GRAD.:     2.125 HEAT: -160.2856
 CYCLE:   420 TIME:   0.039 TIME LEFT:  2.00D  GRAD.:     4.192 HEAT: -160.2922
 CYCLE:   421 TIME:   0.039 TIME LEFT:  2.00D  GRAD.:     1.840 HEAT: -160.2989
 CYCLE:   422 TIME:   0.043 TIME LEFT:  2.00D  GRAD.:     1.909 HEAT: -160.3053
 CYCLE:   423 TIME:   0.052 TIME LEFT:  2.00D  GRAD.:     2.087 HEAT: -160.3031
 CYCLE:   424 TIME:   0.039 TIME LEFT:  2.00D  GRAD.:     2.744 HEAT: -160.3073
 CYCLE:   425 TIME:   0.040 TIME LEFT:  2.00D  GRAD.:     1.978 HEAT: -160.3342
 CYCLE:   426 TIME:   0.043 TIME LEFT:  2.00D  GRAD.:     2.106 HEAT: -160.3398
 CYCLE:   427 TIME:   0.049 TIME LEFT:  2.00D  GRAD.:     1.895 HEAT: -160.3631
 CYCLE:   428 TIME:   0.047 TIME LEFT:  2.00D  GRAD.:     1.973 HEAT: -160.3672
 CYCLE:   429 TIME:   0.044 TIME LEFT:  2.00D  GRAD.:     1.708 HEAT: -160.3662
 CYCLE:   430 TIME:   0.045 TIME LEFT:  2.00D  GRAD.:     1.813 HEAT: -160.3585
 CYCLE:   431 TIME:   0.057 TIME LEFT:  2.00D  GRAD.:     2.147 HEAT: -160.3722
 CYCLE:   432 TIME:   0.055 TIME LEFT:  2.00D  GRAD.:     1.443 HEAT: -160.3794
 CYCLE:   433 TIME:   0.064 TIME LEFT:  2.00D  GRAD.:     1.589 HEAT: -160.3942
 CYCLE:   434 TIME:   0.049 TIME LEFT:  2.00D  GRAD.:     2.277 HEAT: -160.4364
 CYCLE:   435 TIME:   0.051 TIME LEFT:  2.00D  GRAD.:     2.849 HEAT: -160.4440
 CYCLE:   436 TIME:   0.050 TIME LEFT:  2.00D  GRAD.:     1.556 HEAT: -160.4461
 CYCLE:   437 TIME:   0.048 TIME LEFT:  2.00D  GRAD.:     1.739 HEAT: -160.2785
 CYCLE:   438 TIME:   0.043 TIME LEFT:  2.00D  GRAD.:     2.254 HEAT: -160.2815
 CYCLE:   439 TIME:   0.040 TIME LEFT:  2.00D  GRAD.:     1.885 HEAT: -160.2829
 CYCLE:   440 TIME:   0.049 TIME LEFT:  2.00D  GRAD.:     1.927 HEAT: -160.2822
 CYCLE:   441 TIME:   0.040 TIME LEFT:  2.00D  GRAD.:     1.940 HEAT: -160.2770
 CYCLE:   442 TIME:   0.040 TIME LEFT:  2.00D  GRAD.:     1.475 HEAT: -160.2803
 CYCLE:   443 TIME:   0.055 TIME LEFT:  2.00D  GRAD.:     1.877 HEAT: -160.3306
 CYCLE:   444 TIME:   0.043 TIME LEFT:  2.00D  GRAD.:     1.483 HEAT: -160.4023
 CYCLE:   445 TIME:   0.063 TIME LEFT:  2.00D  GRAD.:     1.397 HEAT: -160.4086
 CYCLE:   446 TIME:   0.044 TIME LEFT:  2.00D  GRAD.:     1.823 HEAT: -160.4239
 CYCLE:   447 TIME:   0.060 TIME LEFT:  2.00D  GRAD.:     2.636 HEAT: -160.4187
 CYCLE:   448 TIME:   0.044 TIME LEFT:  2.00D  GRAD.:     0.880 HEAT: -160.4244
 CYCLE:   449 TIME:   0.040 TIME LEFT:  2.00D  GRAD.:     0.751 HEAT: -160.4293
 CYCLE:   450 TIME:   0.045 TIME LEFT:  2.00D  GRAD.:     0.891 HEAT: -160.4221
 CYCLE:   451 TIME:   0.074 TIME LEFT:  2.00D  GRAD.:     2.269 HEAT: -160.4270
 CYCLE:   452 TIME:   0.045 TIME LEFT:  2.00D  GRAD.:     0.898 HEAT: -160.4269
 CYCLE:   453 TIME:   0.040 TIME LEFT:  2.00D  GRAD.:     0.730 HEAT: -160.4272
 CYCLE:   454 TIME:   0.041 TIME LEFT:  2.00D  GRAD.:     0.871 HEAT: -160.4258
 CYCLE:   455 TIME:   0.053 TIME LEFT:  2.00D  GRAD.:     2.133 HEAT: -160.4601
 CYCLE:   456 TIME:   0.039 TIME LEFT:  2.00D  GRAD.:     1.048 HEAT: -160.4760
 CYCLE:   457 TIME:   0.044 TIME LEFT:  2.00D  GRAD.:     0.858 HEAT: -160.4608
 CYCLE:   458 TIME:   0.050 TIME LEFT:  2.00D  GRAD.:     1.002 HEAT: -160.4586
 CYCLE:   459 TIME:   0.057 TIME LEFT:  2.00D  GRAD.:     1.560 HEAT: -160.4798
 CYCLE:   460 TIME:   0.039 TIME LEFT:  2.00D  GRAD.:     1.090 HEAT: -160.4740
 CYCLE:   461 TIME:   0.042 TIME LEFT:  2.00D  GRAD.:     0.940 HEAT: -160.4734
 CYCLE:   462 TIME:   0.042 TIME LEFT:  2.00D  GRAD.:     1.059 HEAT: -160.4670
 CYCLE:   463 TIME:   0.051 TIME LEFT:  2.00D  GRAD.:     2.990 HEAT: -160.3338
 CYCLE:   464 TIME:   0.038 TIME LEFT:  2.00D  GRAD.:     1.179 HEAT: -160.3373
 CYCLE:   465 TIME:   0.044 TIME LEFT:  2.00D  GRAD.:     0.870 HEAT: -160.3354
 CYCLE:   466 TIME:   0.041 TIME LEFT:  2.00D  GRAD.:     0.972 HEAT: -160.3327
 CYCLE:   467 TIME:   0.049 TIME LEFT:  2.00D  GRAD.:     1.521 HEAT: -160.3278
 CYCLE:   468 TIME:   0.050 TIME LEFT:  2.00D  GRAD.:     1.660 HEAT: -160.5335
 CYCLE:   469 TIME:   0.039 TIME LEFT:  2.00D  GRAD.:     1.013 HEAT: -160.5351
 CYCLE:   470 TIME:   0.040 TIME LEFT:  2.00D  GRAD.:     1.186 HEAT: -160.5604
 CYCLE:   471 TIME:   0.041 TIME LEFT:  2.00D  GRAD.:     1.530 HEAT: -160.5567
 CYCLE:   472 TIME:   0.050 TIME LEFT:  2.00D  GRAD.:     1.327 HEAT: -160.5600
 CYCLE:   473 TIME:   0.056 TIME LEFT:  2.00D  GRAD.:     1.118 HEAT: -160.5761
 CYCLE:   474 TIME:   0.051 TIME LEFT:  2.00D  GRAD.:     1.023 HEAT: -160.5580
 CYCLE:   475 TIME:   0.046 TIME LEFT:  2.00D  GRAD.:     1.481 HEAT: -160.5776
 CYCLE:   476 TIME:   0.046 TIME LEFT:  2.00D  GRAD.:     2.446 HEAT: -160.5806
 CYCLE:   477 TIME:   0.041 TIME LEFT:  2.00D  GRAD.:     1.258 HEAT: -160.5887
 CYCLE:   478 TIME:   0.049 TIME LEFT:  2.00D  GRAD.:     1.027 HEAT: -160.5998
 CYCLE:   479 TIME:   0.050 TIME LEFT:  2.00D  GRAD.:     1.352 HEAT: -160.6095
 CYCLE:   480 TIME:   0.054 TIME LEFT:  2.00D  GRAD.:     2.228 HEAT: -160.6134
 CYCLE:   481 TIME:   0.044 TIME LEFT:  2.00D  GRAD.:     1.316 HEAT: -160.6161
 CYCLE:   482 TIME:   0.040 TIME LEFT:  2.00D  GRAD.:     0.978 HEAT: -160.6175
 CYCLE:   483 TIME:   0.049 TIME LEFT:  2.00D  GRAD.:     1.288 HEAT: -160.6213
 CYCLE:   484 TIME:   0.053 TIME LEFT:  2.00D  GRAD.:     2.619 HEAT: -160.6258
 CYCLE:   485 TIME:   0.049 TIME LEFT:  2.00D  GRAD.:     1.446 HEAT: -160.6281
 CYCLE:   486 TIME:   0.048 TIME LEFT:  2.00D  GRAD.:     1.295 HEAT: -160.4782
 CYCLE:   487 TIME:   0.050 TIME LEFT:  2.00D  GRAD.:     1.388 HEAT: -160.4887
 CYCLE:   488 TIME:   0.049 TIME LEFT:  2.00D  GRAD.:     1.505 HEAT: -160.4929
 CYCLE:   489 TIME:   0.045 TIME LEFT:  2.00D  GRAD.:     3.479 HEAT: -160.5328
 CYCLE:   490 TIME:   0.038 TIME LEFT:  2.00D  GRAD.:     1.106 HEAT: -160.5335
 CYCLE:   491 TIME:   0.041 TIME LEFT:  2.00D  GRAD.:     1.024 HEAT: -160.5338
 CYCLE:   492 TIME:   0.070 TIME LEFT:  2.00D  GRAD.:     1.172 HEAT: -160.5531
 CYCLE:   493 TIME:   0.045 TIME LEFT:  2.00D  GRAD.:     1.283 HEAT: -160.5574
 CYCLE:   494 TIME:   0.043 TIME LEFT:  2.00D  GRAD.:     1.240 HEAT: -160.5544
 CYCLE:   495 TIME:   0.050 TIME LEFT:  2.00D  GRAD.:     1.024 HEAT: -160.5493
 CYCLE:   496 TIME:   0.054 TIME LEFT:  2.00D  GRAD.:     1.391 HEAT: -160.6606
 CYCLE:   497 TIME:   0.046 TIME LEFT:  2.00D  GRAD.:     1.803 HEAT: -160.6618
 CYCLE:   498 TIME:   0.045 TIME LEFT:  2.00D  GRAD.:     1.242 HEAT: -160.6833
 CYCLE:   499 TIME:   0.075 TIME LEFT:  2.00D  GRAD.:     1.086 HEAT: -160.6941
 CYCLE:   500 TIME:   0.044 TIME LEFT:  2.00D  GRAD.:     1.419 HEAT: -160.7017
 CYCLE:   501 TIME:   0.053 TIME LEFT:  2.00D  GRAD.:     1.205 HEAT: -160.7037
 CYCLE:   502 TIME:   0.064 TIME LEFT:  2.00D  GRAD.:     1.451 HEAT: -160.7197
 CYCLE:   503 TIME:   0.048 TIME LEFT:  2.00D  GRAD.:     1.372 HEAT: -160.7253
 CYCLE:   504 TIME:   0.047 TIME LEFT:  2.00D  GRAD.:     1.003 HEAT: -160.7238
 CYCLE:   505 TIME:   0.045 TIME LEFT:  2.00D  GRAD.:     0.968 HEAT: -160.7348
 CYCLE:   506 TIME:   0.042 TIME LEFT:  2.00D  GRAD.:     1.608 HEAT: -160.7455
 CYCLE:   507 TIME:   0.040 TIME LEFT:  2.00D  GRAD.:     1.225 HEAT: -160.7399
 CYCLE:   508 TIME:   0.052 TIME LEFT:  2.00D  GRAD.:     1.255 HEAT: -160.7398
 CYCLE:   509 TIME:   0.049 TIME LEFT:  2.00D  GRAD.:     1.502 HEAT: -160.7445
 CYCLE:   510 TIME:   0.061 TIME LEFT:  2.00D  GRAD.:     0.947 HEAT: -160.7356
 CYCLE:   511 TIME:   0.062 TIME LEFT:  2.00D  GRAD.:     0.897 HEAT: -160.7372
 CYCLE:   512 TIME:   0.053 TIME LEFT:  2.00D  GRAD.:     1.399 HEAT: -160.6610
 CYCLE:   513 TIME:   0.050 TIME LEFT:  2.00D  GRAD.:     1.195 HEAT: -160.6616
 CYCLE:   514 TIME:   0.051 TIME LEFT:  2.00D  GRAD.:     1.606 HEAT: -160.6294
 CYCLE:   515 TIME:   0.054 TIME LEFT:  2.00D  GRAD.:     1.194 HEAT: -160.6408
 CYCLE:   516 TIME:   0.048 TIME LEFT:  2.00D  GRAD.:     1.188 HEAT: -160.6609
 CYCLE:   517 TIME:   0.043 TIME LEFT:  2.00D  GRAD.:     2.107 HEAT: -160.6653
 CYCLE:   518 TIME:   0.042 TIME LEFT:  2.00D  GRAD.:     2.519 HEAT: -160.6754
 CYCLE:   519 TIME:   0.050 TIME LEFT:  2.00D  GRAD.:     0.904 HEAT: -160.6532
 CYCLE:   520 TIME:   0.042 TIME LEFT:  2.00D  GRAD.:     0.596 HEAT: -160.6580
 CYCLE:   521 TIME:   0.047 TIME LEFT:  2.00D  GRAD.:     0.945 HEAT: -160.6499
 CYCLE:   522 TIME:   0.050 TIME LEFT:  2.00D  GRAD.:     0.867 HEAT: -160.6547
 CYCLE:   523 TIME:   0.052 TIME LEFT:  2.00D  GRAD.:     1.963 HEAT: -160.6657
 CYCLE:   524 TIME:   0.039 TIME LEFT:  2.00D  GRAD.:     0.630 HEAT: -160.6669
 CYCLE:   525 TIME:   0.039 TIME LEFT:  2.00D  GRAD.:     0.580 HEAT: -160.6683
 CYCLE:   526 TIME:   0.041 TIME LEFT:  2.00D  GRAD.:     0.859 HEAT: -160.6726
 CYCLE:   527 TIME:   0.053 TIME LEFT:  2.00D  GRAD.:     1.999 HEAT: -160.6826
 CYCLE:   528 TIME:   0.051 TIME LEFT:  2.00D  GRAD.:     0.770 HEAT: -160.6827
 CYCLE:   529 TIME:   0.056 TIME LEFT:  2.00D  GRAD.:     0.640 HEAT: -160.6888
 CYCLE:   530 TIME:   0.058 TIME LEFT:  2.00D  GRAD.:     0.760 HEAT: -160.6902
 CYCLE:   531 TIME:   0.051 TIME LEFT:  2.00D  GRAD.:     1.161 HEAT: -160.6944
 CYCLE:   532 TIME:   0.042 TIME LEFT:  2.00D  GRAD.:     1.318 HEAT: -160.6845
 CYCLE:   533 TIME:   0.044 TIME LEFT:  2.00D  GRAD.:     0.601 HEAT: -160.6830
 CYCLE:   534 TIME:   0.048 TIME LEFT:  2.00D  GRAD.:     0.656 HEAT: -160.6850
 CYCLE:   535 TIME:   0.041 TIME LEFT:  2.00D  GRAD.:     0.861 HEAT: -160.6804
 CYCLE:   536 TIME:   0.050 TIME LEFT:  2.00D  GRAD.:     1.380 HEAT: -160.6849
 CYCLE:   537 TIME:   0.043 TIME LEFT:  2.00D  GRAD.:     0.953 HEAT: -160.6987
 CYCLE:   538 TIME:   0.049 TIME LEFT:  2.00D  GRAD.:     0.567 HEAT: -160.7074
 CYCLE:   539 TIME:   0.040 TIME LEFT:  2.00D  GRAD.:     0.697 HEAT: -160.7093
 CYCLE:   540 TIME:   0.049 TIME LEFT:  2.00D  GRAD.:     0.883 HEAT: -160.7143
 CYCLE:   541 TIME:   0.051 TIME LEFT:  2.00D  GRAD.:     1.411 HEAT: -160.7226
 CYCLE:   542 TIME:   0.049 TIME LEFT:  2.00D  GRAD.:     0.780 HEAT: -160.7249
 CYCLE:   543 TIME:   0.042 TIME LEFT:  2.00D  GRAD.:     0.609 HEAT: -160.7268
 CYCLE:   544 TIME:   0.048 TIME LEFT:  2.00D  GRAD.:     0.751 HEAT: -160.7252
 CYCLE:   545 TIME:   0.050 TIME LEFT:  2.00D  GRAD.:     1.118 HEAT: -160.7313
 CYCLE:   546 TIME:   0.043 TIME LEFT:  2.00D  GRAD.:     0.858 HEAT: -160.7342
 CYCLE:   547 TIME:   0.051 TIME LEFT:  2.00D  GRAD.:     0.734 HEAT: -160.7480
 CYCLE:   548 TIME:   0.049 TIME LEFT:  2.00D  GRAD.:     1.223 HEAT: -160.7371
 CYCLE:   549 TIME:   0.039 TIME LEFT:  2.00D  GRAD.:     0.871 HEAT: -160.7412
 CYCLE:   550 TIME:   0.048 TIME LEFT:  2.00D  GRAD.:     0.697 HEAT: -160.7420
 CYCLE:   551 TIME:   0.046 TIME LEFT:  2.00D  GRAD.:     1.033 HEAT: -160.7280
 CYCLE:   552 TIME:   0.050 TIME LEFT:  2.00D  GRAD.:     1.054 HEAT: -160.7304
 CYCLE:   553 TIME:   0.045 TIME LEFT:  2.00D  GRAD.:     1.058 HEAT: -160.7320
 CYCLE:   554 TIME:   0.047 TIME LEFT:  2.00D  GRAD.:     0.915 HEAT: -160.7370
 CYCLE:   555 TIME:   0.052 TIME LEFT:  2.00D  GRAD.:     1.095 HEAT: -160.7554
 CYCLE:   556 TIME:   0.045 TIME LEFT:  2.00D  GRAD.:     0.870 HEAT: -160.7600
 CYCLE:   557 TIME:   0.043 TIME LEFT:  2.00D  GRAD.:     0.946 HEAT: -160.7773
 CYCLE:   558 TIME:   0.050 TIME LEFT:  2.00D  GRAD.:     1.288 HEAT: -160.7771
 CYCLE:   559 TIME:   0.047 TIME LEFT:  2.00D  GRAD.:     0.932 HEAT: -160.7769
 CYCLE:   560 TIME:   0.044 TIME LEFT:  2.00D  GRAD.:     0.896 HEAT: -160.8082
 CYCLE:   561 TIME:   0.044 TIME LEFT:  2.00D  GRAD.:     1.261 HEAT: -160.8326
 CYCLE:   562 TIME:   0.045 TIME LEFT:  2.00D  GRAD.:     0.786 HEAT: -160.8330
 CYCLE:   563 TIME:   0.043 TIME LEFT:  2.00D  GRAD.:     0.633 HEAT: -160.8337
 CYCLE:   564 TIME:   0.049 TIME LEFT:  2.00D  GRAD.:     0.705 HEAT: -160.8362
 CYCLE:   565 TIME:   0.048 TIME LEFT:  2.00D  GRAD.:     0.716 HEAT: -160.8263
 CYCLE:   566 TIME:   0.046 TIME LEFT:  2.00D  GRAD.:     2.020 HEAT: -160.7465
 CYCLE:   567 TIME:   0.044 TIME LEFT:  2.00D  GRAD.:     0.774 HEAT: -160.8105
 CYCLE:   568 TIME:   0.042 TIME LEFT:  2.00D  GRAD.:     0.605 HEAT: -160.8223
 CYCLE:   569 TIME:   0.047 TIME LEFT:  2.00D  GRAD.:     0.557 HEAT: -160.8219
 CYCLE:   570 TIME:   0.047 TIME LEFT:  2.00D  GRAD.:     1.103 HEAT: -160.7398
 CYCLE:   571 TIME:   0.050 TIME LEFT:  2.00D  GRAD.:     1.316 HEAT: -160.6488
 CYCLE:   572 TIME:   0.047 TIME LEFT:  2.00D  GRAD.:     1.069 HEAT: -160.6418
 CYCLE:   573 TIME:   0.048 TIME LEFT:  2.00D  GRAD.:     1.305 HEAT: -160.6481
 CYCLE:   574 TIME:   0.059 TIME LEFT:  2.00D  GRAD.:     1.363 HEAT: -160.6502
 CYCLE:   575 TIME:   0.044 TIME LEFT:  2.00D  GRAD.:     0.724 HEAT: -160.6533
 CYCLE:   576 TIME:   0.041 TIME LEFT:  2.00D  GRAD.:     0.723 HEAT: -160.6443
 CYCLE:   577 TIME:   0.050 TIME LEFT:  2.00D  GRAD.:     0.954 HEAT: -160.6308
 CYCLE:   578 TIME:   0.044 TIME LEFT:  2.00D  GRAD.:     1.461 HEAT: -160.6604
 CYCLE:   579 TIME:   0.046 TIME LEFT:  2.00D  GRAD.:     0.674 HEAT: -160.6568
 CYCLE:   580 TIME:   0.048 TIME LEFT:  2.00D  GRAD.:     0.561 HEAT: -160.6596
 CYCLE:   581 TIME:   0.047 TIME LEFT:  2.00D  GRAD.:     0.733 HEAT: -160.6445
 CYCLE:   582 TIME:   0.055 TIME LEFT:  2.00D  GRAD.:     1.126 HEAT: -160.6438
 CYCLE:   583 TIME:   0.046 TIME LEFT:  2.00D  GRAD.:     0.830 HEAT: -160.6621
 CYCLE:   584 TIME:   0.048 TIME LEFT:  2.00D  GRAD.:     0.799 HEAT: -160.6512
 CYCLE:   585 TIME:   0.041 TIME LEFT:  2.00D  GRAD.:     0.858 HEAT: -160.6534
 CYCLE:   586 TIME:   0.046 TIME LEFT:  2.00D  GRAD.:     1.150 HEAT: -160.6638
 CYCLE:   587 TIME:   0.051 TIME LEFT:  2.00D  GRAD.:     0.826 HEAT: -160.6624
 CYCLE:   588 TIME:   0.041 TIME LEFT:  2.00D  GRAD.:     0.832 HEAT: -160.6495
 CYCLE:   589 TIME:   0.045 TIME LEFT:  2.00D  GRAD.:     1.464 HEAT: -160.6683
 CYCLE:   590 TIME:   0.051 TIME LEFT:  2.00D  GRAD.:     0.640 HEAT: -160.6568
 CYCLE:   591 TIME:   0.054 TIME LEFT:  2.00D  GRAD.:     0.625 HEAT: -160.6694
 CYCLE:   592 TIME:   0.048 TIME LEFT:  2.00D  GRAD.:     0.842 HEAT: -160.6604
 CYCLE:   593 TIME:   0.045 TIME LEFT:  2.00D  GRAD.:     0.868 HEAT: -160.6630
 CYCLE:   594 TIME:   0.048 TIME LEFT:  2.00D  GRAD.:     1.638 HEAT: -160.6782
 CYCLE:   595 TIME:   0.051 TIME LEFT:  2.00D  GRAD.:     0.965 HEAT: -160.6806
 CYCLE:   596 TIME:   0.045 TIME LEFT:  2.00D  GRAD.:     0.779 HEAT: -160.6752
 CYCLE:   597 TIME:   0.046 TIME LEFT:  2.00D  GRAD.:     0.825 HEAT: -160.6719
 CYCLE:   598 TIME:   0.046 TIME LEFT:  2.00D  GRAD.:     1.698 HEAT: -160.6663
 CYCLE:   599 TIME:   0.050 TIME LEFT:  2.00D  GRAD.:     0.963 HEAT: -160.6660
 CYCLE:   600 TIME:   0.053 TIME LEFT:  2.00D  GRAD.:     1.884 HEAT: -160.6509
 CYCLE:   601 TIME:   0.050 TIME LEFT:  2.00D  GRAD.:     1.366 HEAT: -160.6626
 CYCLE:   602 TIME:   0.046 TIME LEFT:  2.00D  GRAD.:     0.647 HEAT: -160.6441
 CYCLE:   603 TIME:   0.049 TIME LEFT:  2.00D  GRAD.:     0.643 HEAT: -160.6543
 CYCLE:   604 TIME:   0.050 TIME LEFT:  2.00D  GRAD.:     1.391 HEAT: -160.6369
 CYCLE:   605 TIME:   0.047 TIME LEFT:  2.00D  GRAD.:     1.749 HEAT: -160.6355
 CYCLE:   606 TIME:   0.043 TIME LEFT:  2.00D  GRAD.:     0.530 HEAT: -160.6400


           HEAT OF FORMATION IS ESSENTIALLY STATIONARY


          CURRENT BEST VALUE OF HEAT OF FORMATION =   -160.836244
 
 CHARGE=0 SINGLET  PM7 EPS=80.1 THREADS=12 PRECISE RHF
 C24H40N8O4 | Equilibrium Geometry | PM7

  O     4.97115152 +1  -2.33201150 +1  -2.65824118 +1
  O     5.24866310 +1  -0.45130826 +1   2.05514902 +1
  O    -4.97096573 +1   2.35033346 +1  -2.66075693 +1
  O    -5.25236553 +1   0.44808669 +1   2.04865974 +1
  N    -0.76677410 +1  -3.00311439 +1  -0.67477445 +1
  N     0.77037863 +1   2.99807018 +1  -0.67112970 +1
  N     1.34445501 +1  -2.10622252 +1  -0.35542323 +1
  N    -1.34197165 +1   2.10228618 +1  -0.35673328 +1
  N     1.82686878 +1   0.26012719 +1  -0.37974568 +1
  N    -1.82492198 +1  -0.26440726 +1  -0.38536169 +1
  N     3.55219426 +1  -1.32724246 +1  -0.14021374 +1
  N    -3.54971010 +1   1.32430367 +1  -0.14918779 +1
  C    -0.08382363 +1  -4.32218266 +1  -0.73746278 +1
  C    -2.08982035 +1  -3.14613435 +1  -0.03014449 +1
  C     0.08827247 +1   4.31701546 +1  -0.74061102 +1
  C     2.09103031 +1   3.14171582 +1  -0.02203234 +1
  C     0.11941383 +1  -4.91942402 +1   0.66502516 +1
  C    -1.95370323 +1  -3.68971132 +1   1.40282043 +1
  C    -0.11998754 +1   4.91879386 +1   0.65906855 +1
  C     1.95061889 +1   3.69337693 +1   1.40749506 +1
  C    -1.22287444 +1  -5.03776812 +1   1.39616795 +1
  C     1.22090139 +1   5.04189900 +1   1.39166096 +1
  C     0.01888376 +1  -1.89535582 +1  -0.41746162 +1
  C    -0.01644437 +1   1.89097686 +1  -0.41600628 +1
  C     0.48508683 +1   0.51013322 +1  -0.38556159 +1
  C    -0.48338636 +1  -0.51453261 +1  -0.38756593 +1
  C     2.21391450 +1  -1.03235022 +1  -0.32954553 +1
  C    -2.21183308 +1   1.02855214 +1  -0.33399364 +1
  C     4.02108477 +1  -2.68501265 +1  -0.45077191 +1
  C     4.53543522 +1  -0.23557289 +1  -0.25398584 +1
  C    -4.01698649 +1   2.68415810 +1  -0.45220410 +1
  C    -4.53423353 +1   0.23409969 +1  -0.25988923 +1
  C     3.96447254 +1  -3.02689091 +1  -1.94838876 +1
  C     4.68245816 +1   0.44712899 +1   1.11926102 +1
  C    -3.95892089 +1   3.03438563 +1  -1.94791333 +1
  C    -4.68110487 +1  -0.44800770 +1   1.11375403 +1
  H     0.89076638 +1  -4.22653158 +1  -1.26699485 +1
  H    -0.72208289 +1  -4.98818076 +1  -1.36150897 +1
  H    -2.68715757 +1  -3.84798027 +1  -0.65861312 +1
  H    -2.64940962 +1  -2.18535702 +1  -0.03401561 +1
  H    -0.88399225 +1   4.22028307 +1  -1.27398010 +1
  H     0.72992540 +1   4.98009391 +1  -1.36416672 +1
  H     2.69240607 +1   3.83858441 +1  -0.65216841 +1
  H     2.64837068 +1   2.17958544 +1  -0.01808707 +1
  H     0.60890382 +1  -5.90669714 +1   0.58496033 +1
  H     0.81715475 +1  -4.28130042 +1   1.24268870 +1
  H    -1.40892385 +1  -2.96200105 +1   2.03409398 +1
  H    -2.95663168 +1  -3.79435295 +1   1.85732519 +1
  H    -0.61149413 +1   5.90451238 +1   0.57430790 +1
  H    -0.81746997 +1   4.28109189 +1   1.23734169 +1
  H     1.40309934 +1   2.96985683 +1   2.04113657 +1
  H     2.95205715 +1   3.79978032 +1   1.86453559 +1
  H    -1.85202305 +1  -5.80843613 +1   0.91245376 +1
  H    -1.06194499 +1  -5.38890634 +1   2.43224939 +1
  H     1.85080906 +1   5.80895423 +1   0.90343554 +1
  H     1.05893612 +1   5.40026057 +1   2.42500996 +1
  H     3.39418663 +1  -3.41968934 +1   0.11722019 +1
  H     5.06103185 +1  -2.79755794 +1  -0.06584828 +1
  H     4.23319351 +1   0.51949857 +1  -1.01925273 +1
  H     5.51957731 +1  -0.64280915 +1  -0.57928174 +1
  H    -5.05734978 +1   2.79581744 +1  -0.06814328 +1
  H    -3.38996609 +1   3.41477941 +1   0.12070321 +1
  H    -5.51810223 +1   0.64164449 +1  -0.58550942 +1
  H    -4.23268405 +1  -0.52193517 +1  -1.02464536 +1
  H     4.20578507 +1  -4.09240123 +1  -2.12696687 +1
  H     2.97944722 +1  -2.79381429 +1  -2.39378973 +1
  H     5.40041275 +1   1.28654247 +1   1.08080123 +1
  H     3.70970665 +1   0.79640029 +1   1.51450356 +1
  H    -4.19324766 +1   4.10262391 +1  -2.11997880 +1
  H    -2.97596068 +1   2.79771610 +1  -2.39578632 +1
  H    -5.39667331 +1  -1.28953899 +1   1.07433191 +1
  H    -3.70774011 +1  -0.79396300 +1   1.51052671 +1
  H     4.81049126 +1  -1.36331944 +1  -2.62038250 +1
  H     4.71388056 +1  -1.27912260 +1   2.07626520 +1
  H    -4.81815329 +1   1.38022385 +1  -2.62723139 +1
  H    -4.71258619 +1   1.27205938 +1   2.08255810 +1
 
 

 -------------------------------------------------------------------------------
 CHARGE=0 SINGLET  PM7 EPS=80.1 THREADS=12 PRECISE RHF
 C24H40N8O4 | Equilibrium Geometry | PM7



     HERBERTS TEST WAS SATISFIED IN BFGS                      
     SCF FIELD WAS ACHIEVED                                   


                              PM7 CALCULATION
                                                       MOPAC v23.1.2 Linux
                                                       Sat Jul 19 01:19:49 2025




          FINAL HEAT OF FORMATION =       -160.83624 KCAL/MOL =    -672.93885 KJ/MOL
          VAN DER WAALS AREA      =        477.59 SQUARE ANGSTROMS



          DIELECTRIC ENERGY       =         -1.29786 EV
          COSMO AREA              =        477.59 SQUARE ANGSTROMS
          COSMO VOLUME            =        618.43 CUBIC ANGSTROMS

          GRADIENT NORM           =          0.70510          =       0.08088 PER ATOM
          IONIZATION POTENTIAL    =          7.985220 EV
          HOMO LUMO ENERGIES (EV) =         -7.985 -0.860
          NO. OF FILLED LEVELS    =        100
          MOLECULAR WEIGHT        =        504.6312         POINT GROUP:  C2  

          MOLECULAR DIMENSIONS (Angstroms)

            Atom       Atom       Distance
            H    55    H    53    12.19323
            O     2    O     3    11.59070
            O     4    O     1     8.60632


          SCF CALCULATIONS        =        609
 
          WALL-CLOCK TIME         =     29.264 SECONDS
          COMPUTATION TIME        =          2 MINUTES AND 55.529 SECONDS




   ATOM   CHEMICAL          X               Y               Z
  NUMBER   SYMBOL      (ANGSTROMS)     (ANGSTROMS)     (ANGSTROMS)
 
     1       O          4.97115152  *  -2.33201150  *  -2.65824118  *
     2       O          5.24866310  *  -0.45130826  *   2.05514902  *
     3       O         -4.97096573  *   2.35033346  *  -2.66075693  *
     4       O         -5.25236553  *   0.44808669  *   2.04865974  *
     5       N         -0.76677410  *  -3.00311439  *  -0.67477445  *
     6       N          0.77037863  *   2.99807018  *  -0.67112970  *
     7       N          1.34445501  *  -2.10622252  *  -0.35542323  *
     8       N         -1.34197165  *   2.10228618  *  -0.35673328  *
     9       N          1.82686878  *   0.26012719  *  -0.37974568  *
    10       N         -1.82492198  *  -0.26440726  *  -0.38536169  *
    11       N          3.55219426  *  -1.32724246  *  -0.14021374  *
    12       N         -3.54971010  *   1.32430367  *  -0.14918779  *
    13       C         -0.08382363  *  -4.32218266  *  -0.73746278  *
    14       C         -2.08982035  *  -3.14613435  *  -0.03014449  *
    15       C          0.08827247  *   4.31701546  *  -0.74061102  *
    16       C          2.09103031  *   3.14171582  *  -0.02203234  *
    17       C          0.11941383  *  -4.91942402  *   0.66502516  *
    18       C         -1.95370323  *  -3.68971132  *   1.40282043  *
    19       C         -0.11998754  *   4.91879386  *   0.65906855  *
    20       C          1.95061889  *   3.69337693  *   1.40749506  *
    21       C         -1.22287444  *  -5.03776812  *   1.39616795  *
    22       C          1.22090139  *   5.04189900  *   1.39166096  *
    23       C          0.01888376  *  -1.89535582  *  -0.41746162  *
    24       C         -0.01644437  *   1.89097686  *  -0.41600628  *
    25       C          0.48508683  *   0.51013322  *  -0.38556159  *
    26       C         -0.48338636  *  -0.51453261  *  -0.38756593  *
    27       C          2.21391450  *  -1.03235022  *  -0.32954553  *
    28       C         -2.21183308  *   1.02855214  *  -0.33399364  *
    29       C          4.02108477  *  -2.68501265  *  -0.45077191  *
    30       C          4.53543522  *  -0.23557289  *  -0.25398584  *
    31       C         -4.01698649  *   2.68415810  *  -0.45220410  *
    32       C         -4.53423353  *   0.23409969  *  -0.25988923  *
    33       C          3.96447254  *  -3.02689091  *  -1.94838876  *
    34       C          4.68245816  *   0.44712899  *   1.11926102  *
    35       C         -3.95892089  *   3.03438563  *  -1.94791333  *
    36       C         -4.68110487  *  -0.44800770  *   1.11375403  *
    37       H          0.89076638  *  -4.22653158  *  -1.26699485  *
    38       H         -0.72208289  *  -4.98818076  *  -1.36150897  *
    39       H         -2.68715757  *  -3.84798027  *  -0.65861312  *
    40       H         -2.64940962  *  -2.18535702  *  -0.03401561  *
    41       H         -0.88399225  *   4.22028307  *  -1.27398010  *
    42       H          0.72992540  *   4.98009391  *  -1.36416672  *
    43       H          2.69240607  *   3.83858441  *  -0.65216841  *
    44       H          2.64837068  *   2.17958544  *  -0.01808707  *
    45       H          0.60890382  *  -5.90669714  *   0.58496033  *
    46       H          0.81715475  *  -4.28130042  *   1.24268870  *
    47       H         -1.40892385  *  -2.96200105  *   2.03409398  *
    48       H         -2.95663168  *  -3.79435295  *   1.85732519  *
    49       H         -0.61149413  *   5.90451238  *   0.57430790  *
    50       H         -0.81746997  *   4.28109189  *   1.23734169  *
    51       H          1.40309934  *   2.96985683  *   2.04113657  *
    52       H          2.95205715  *   3.79978032  *   1.86453559  *
    53       H         -1.85202305  *  -5.80843613  *   0.91245376  *
    54       H         -1.06194499  *  -5.38890634  *   2.43224939  *
    55       H          1.85080906  *   5.80895423  *   0.90343554  *
    56       H          1.05893612  *   5.40026057  *   2.42500996  *
    57       H          3.39418663  *  -3.41968934  *   0.11722019  *
    58       H          5.06103185  *  -2.79755794  *  -0.06584828  *
    59       H          4.23319351  *   0.51949857  *  -1.01925273  *
    60       H          5.51957731  *  -0.64280915  *  -0.57928174  *
    61       H         -5.05734978  *   2.79581744  *  -0.06814328  *
    62       H         -3.38996609  *   3.41477941  *   0.12070321  *
    63       H         -5.51810223  *   0.64164449  *  -0.58550942  *
    64       H         -4.23268405  *  -0.52193517  *  -1.02464536  *
    65       H          4.20578507  *  -4.09240123  *  -2.12696687  *
    66       H          2.97944722  *  -2.79381429  *  -2.39378973  *
    67       H          5.40041275  *   1.28654247  *   1.08080123  *
    68       H          3.70970665  *   0.79640029  *   1.51450356  *
    69       H         -4.19324766  *   4.10262391  *  -2.11997880  *
    70       H         -2.97596068  *   2.79771610  *  -2.39578632  *
    71       H         -5.39667331  *  -1.28953899  *   1.07433191  *
    72       H         -3.70774011  *  -0.79396300  *   1.51052671  *
    73       H          4.81049126  *  -1.36331944  *  -2.62038250  *
    74       H          4.71388056  *  -1.27912260  *   2.07626520  *
    75       H         -4.81815329  *   1.38022385  *  -2.62723139  *
    76       H         -4.71258619  *   1.27205938  *   2.08255810  *

                             CARTESIAN COORDINATES

   1    O        4.971151522    -2.332011503    -2.658241177
   2    O        5.248663102    -0.451308258     2.055149016
   3    O       -4.970965731     2.350333458    -2.660756927
   4    O       -5.252365530     0.448086692     2.048659739
   5    N       -0.766774099    -3.003114394    -0.674774448
   6    N        0.770378626     2.998070183    -0.671129698
   7    N        1.344455008    -2.106222522    -0.355423227
   8    N       -1.341971655     2.102286181    -0.356733280
   9    N        1.826868785     0.260127193    -0.379745682
  10    N       -1.824921978    -0.264407256    -0.385361688
  11    N        3.552194261    -1.327242457    -0.140213738
  12    N       -3.549710096     1.324303669    -0.149187792
  13    C       -0.083823633    -4.322182665    -0.737462777
  14    C       -2.089820348    -3.146134351    -0.030144488
  15    C        0.088272467     4.317015464    -0.740611018
  16    C        2.091030311     3.141715821    -0.022032341
  17    C        0.119413825    -4.919424016     0.665025163
  18    C       -1.953703227    -3.689711322     1.402820431
  19    C       -0.119987538     4.918793857     0.659068555
  20    C        1.950618889     3.693376933     1.407495060
  21    C       -1.222874444    -5.037768122     1.396167954
  22    C        1.220901391     5.041899000     1.391660957
  23    C        0.018883761    -1.895355817    -0.417461618
  24    C       -0.016444367     1.890976860    -0.416006280
  25    C        0.485086827     0.510133217    -0.385561592
  26    C       -0.483386364    -0.514532605    -0.387565931
  27    C        2.213914496    -1.032350219    -0.329545526
  28    C       -2.211833076     1.028552142    -0.333993642
  29    C        4.021084766    -2.685012655    -0.450771906
  30    C        4.535435219    -0.235572893    -0.253985836
  31    C       -4.016986492     2.684158100    -0.452204104
  32    C       -4.534233526     0.234099690    -0.259889227
  33    C        3.964472538    -3.026890907    -1.948388757
  34    C        4.682458159     0.447128992     1.119261021
  35    C       -3.958920888     3.034385635    -1.947913330
  36    C       -4.681104869    -0.448007704     1.113754026
  37    H        0.890766376    -4.226531585    -1.266994847
  38    H       -0.722082893    -4.988180757    -1.361508971
  39    H       -2.687157570    -3.847980273    -0.658613123
  40    H       -2.649409620    -2.185357022    -0.034015607
  41    H       -0.883992254     4.220283067    -1.273980104
  42    H        0.729925396     4.980093910    -1.364166719
  43    H        2.692406072     3.838584407    -0.652168409
  44    H        2.648370676     2.179585442    -0.018087068
  45    H        0.608903821    -5.906697137     0.584960334
  46    H        0.817154749    -4.281300417     1.242688698
  47    H       -1.408923847    -2.962001048     2.034093979
  48    H       -2.956631680    -3.794352955     1.857325192
  49    H       -0.611494125     5.904512377     0.574307897
  50    H       -0.817469974     4.281091886     1.237341694
  51    H        1.403099341     2.969856835     2.041136571
  52    H        2.952057147     3.799780317     1.864535588
  53    H       -1.852023050    -5.808436126     0.912453761
  54    H       -1.061944992    -5.388906342     2.432249389
  55    H        1.850809060     5.808954231     0.903435543
  56    H        1.058936116     5.400260567     2.425009960
  57    H        3.394186634    -3.419689345     0.117220192
  58    H        5.061031850    -2.797557943    -0.065848277
  59    H        4.233193512     0.519498566    -1.019252734
  60    H        5.519577314    -0.642809154    -0.579281737
  61    H       -5.057349781     2.795817435    -0.068143280
  62    H       -3.389966086     3.414779406     0.120703212
  63    H       -5.518102232     0.641644493    -0.585509416
  64    H       -4.232684053    -0.521935169    -1.024645362
  65    H        4.205785072    -4.092401232    -2.126966869
  66    H        2.979447225    -2.793814287    -2.393789727
  67    H        5.400412751     1.286542470     1.080801229
  68    H        3.709706645     0.796400288     1.514503561
  69    H       -4.193247661     4.102623910    -2.119978804
  70    H       -2.975960682     2.797716104    -2.395786322
  71    H       -5.396673309    -1.289538993     1.074331912
  72    H       -3.707740106    -0.793962999     1.510526705
  73    H        4.810491260    -1.363319444    -2.620382499
  74    H        4.713880564    -1.279122599     2.076265198
  75    H       -4.818153293     1.380223846    -2.627231395
  76    H       -4.712586187     1.272059378     2.082558102


           Empirical Formula: C24 H40 N8 O4  =    76 atoms



      MOLECULAR POINT GROUP   :   C2  


                  EIGENVALUES  
 -38.03324 -37.98709 -36.78378 -36.63854 -35.59883 -35.58107 -33.89755 -33.55501
 -29.50694 -29.50569 -29.35002 -29.33924 -28.56824 -28.53542 -26.89143 -26.44531
 -26.42034 -26.38127 -26.11726 -25.42035 -25.09332 -24.49264 -23.50039 -23.44830
 -22.31515 -22.30716 -21.71715 -21.69190 -21.32107 -21.17010 -21.06060 -20.43071
 -19.56952 -19.37496 -18.88573 -18.47501 -18.18132 -17.95846 -17.80044 -17.38938
 -17.33616 -17.30206 -16.77413 -16.61579 -16.47645 -16.08707 -16.04147 -15.96028
 -15.77900 -15.68662 -15.64329 -15.46339 -15.29159 -15.05977 -15.04174 -14.83893
 -14.78120 -14.68289 -14.55614 -14.37048 -14.20752 -14.16620 -14.12928 -14.11648
 -14.04654 -13.75220 -13.51826 -13.41146 -13.39193 -13.25671 -13.12093 -12.84168
 -12.61337 -12.60359 -12.52304 -12.48824 -12.37841 -12.26778 -12.10016 -12.08382
 -12.06075 -11.96951 -11.79051 -11.74832 -11.55109 -11.41120 -11.31633 -11.30097
 -11.23990 -11.22309 -11.21203 -10.99621 -10.97532 -10.82963 -10.69373  -9.66076
  -9.61169  -9.22049  -9.20499  -7.98522  -0.85964  -0.42654   0.33390   1.28147
   1.36516   1.52233   1.71750   2.00504   2.33329   2.57381   2.59077   2.75560
   2.75826   2.87512   2.88671   2.98333   3.07847   3.19359   3.73615   3.75179
   3.86442   3.87074   3.89497   3.94216   4.00577   4.01581   4.03426   4.07822
   4.24365   4.26931   4.31762   4.38715   4.53400   4.54424   4.67577   4.68219
   4.79933   4.79999   4.81242   4.81555   5.05627   5.32027   5.33973   5.37487
   5.43672   5.44148   5.51771   5.52380   5.62141   5.66859   5.68383   5.69596
   5.70563   5.71713   5.76223   5.77444   5.82767   5.84846   5.89459   5.90824
   5.95771   5.97879   5.99920   6.01631   6.03355   6.04494   6.05785   6.05838
   6.10826   6.12589   6.19846   6.20394   6.25256   6.25682   6.27985   6.28900
   6.46027   6.46967   6.59926   6.59960   6.70339   6.70393   6.75505   6.75602


              NET ATOMIC CHARGES AND DIPOLE CONTRIBUTIONS

  ATOM NO.   TYPE          CHARGE      No. of ELECS.   s-Pop       p-Pop       
    1          O          -0.625233        6.6252     1.84546     4.77977
    2          O          -0.628727        6.6287     1.84779     4.78094
    3          O          -0.625466        6.6255     1.84543     4.78004
    4          O          -0.628794        6.6288     1.84766     4.78113
    5          N          -0.364740        5.3647     1.60626     3.75848
    6          N          -0.364716        5.3647     1.60586     3.75885
    7          N          -0.615474        5.6155     1.75783     3.85765
    8          N          -0.616173        5.6162     1.75790     3.85827
    9          N          -0.570998        5.5710     1.75350     3.81750
   10          N          -0.572117        5.5721     1.75365     3.81846
   11          N          -0.402776        5.4028     1.57565     3.82712
   12          N          -0.402637        5.4026     1.57394     3.82869
   13          C          -0.081460        4.0815     1.07276     3.00870
   14          C          -0.091443        4.0914     1.07479     3.01665
   15          C          -0.081364        4.0814     1.07272     3.00865
   16          C          -0.091291        4.0913     1.07480     3.01649
   17          C          -0.297934        4.2979     1.06353     3.23440
   18          C          -0.296459        4.2965     1.06446     3.23200
   19          C          -0.297847        4.2978     1.06347     3.23438
   20          C          -0.296540        4.2965     1.06444     3.23210
   21          C          -0.273280        4.2733     1.05828     3.21500
   22          C          -0.273387        4.2734     1.05824     3.21514
   23          C           0.429277        3.5707     1.06581     2.50492
   24          C           0.429788        3.5702     1.06563     2.50459
   25          C           0.015628        3.9844     1.05894     2.92543
   26          C           0.017739        3.9823     1.05910     2.92317
   27          C           0.520665        3.4793     1.04305     2.43629
   28          C           0.521700        3.4783     1.04284     2.43546
   29          C          -0.117952        4.1180     1.07849     3.03946
   30          C          -0.124250        4.1242     1.07861     3.04564
   31          C          -0.117036        4.1170     1.07842     3.03862
   32          C          -0.123532        4.1235     1.07855     3.04498
   33          C          -0.016442        4.0164     1.09506     2.92138
   34          C           0.008246        3.9918     1.09277     2.89899
   35          C          -0.016079        4.0161     1.09507     2.92101
   36          C           0.008203        3.9918     1.09286     2.89894
   37          H           0.164611        0.8354     0.83539
   38          H           0.150344        0.8497     0.84966
   39          H           0.157344        0.8427     0.84266
   40          H           0.184676        0.8153     0.81532
   41          H           0.164529        0.8355     0.83547
   42          H           0.150363        0.8496     0.84964
   43          H           0.157395        0.8426     0.84260
   44          H           0.184732        0.8153     0.81527
   45          H           0.145732        0.8543     0.85427
   46          H           0.157443        0.8426     0.84256
   47          H           0.151808        0.8482     0.84819
   48          H           0.151148        0.8489     0.84885
   49          H           0.145759        0.8542     0.85424
   50          H           0.157466        0.8425     0.84253
   51          H           0.151835        0.8482     0.84816
   52          H           0.151117        0.8489     0.84888
   53          H           0.136699        0.8633     0.86330
   54          H           0.137859        0.8621     0.86214
   55          H           0.136744        0.8633     0.86326
   56          H           0.137819        0.8622     0.86218
   57          H           0.182350        0.8176     0.81765
   58          H           0.167533        0.8325     0.83247
   59          H           0.174039        0.8260     0.82596
   60          H           0.163355        0.8366     0.83664
   61          H           0.167582        0.8324     0.83242
   62          H           0.182014        0.8180     0.81799
   63          H           0.163305        0.8367     0.83669
   64          H           0.174064        0.8259     0.82594
   65          H           0.156199        0.8438     0.84380
   66          H           0.144218        0.8558     0.85578
   67          H           0.149293        0.8507     0.85071
   68          H           0.142779        0.8572     0.85722
   69          H           0.156252        0.8437     0.84375
   70          H           0.144195        0.8558     0.85581
   71          H           0.149514        0.8505     0.85049
   72          H           0.142819        0.8572     0.85718
   73          H           0.353898        0.6461     0.64610
   74          H           0.360019        0.6400     0.63998
   75          H           0.353990        0.6460     0.64601
   76          H           0.360055        0.6399     0.63995
 DIPOLE           X         Y         Z       TOTAL
 POINT-CHG.    -0.025    -0.006     0.137     0.140
 HYBRID        -0.005     0.003     0.228     0.228
 SUM           -0.030    -0.004     0.365     0.366


          ATOMIC ORBITAL ELECTRON POPULATIONS

     Atom    s        px        py        pz   
    1  O   1.84546   1.59516   1.38649   1.79812
    2  O   1.84779   1.65196   1.44534   1.68364
    3  O   1.84543   1.59438   1.38808   1.79758
    4  O   1.84766   1.64559   1.44965   1.68589
    5  N   1.60626   1.13692   1.10336   1.51820
    6  N   1.60586   1.13766   1.10376   1.51744
    7  N   1.75783   1.10775   1.37348   1.37641
    8  N   1.75790   1.10771   1.37335   1.37721
    9  N   1.75350   1.19576   1.23771   1.38404
   10  N   1.75365   1.19583   1.23728   1.38535
   11  N   1.57565   1.06625   1.11088   1.64999
   12  N   1.57394   1.06638   1.11082   1.65149
   13  C   1.07276   1.10577   0.86458   1.03835
   14  C   1.07479   0.86168   1.16569   0.98928
   15  C   1.07272   1.10580   0.86439   1.03846
   16  C   1.07480   0.86232   1.16516   0.98901
   17  C   1.06353   1.05439   1.14732   1.03269
   18  C   1.06446   1.13859   1.05360   1.03981
   19  C   1.06347   1.05439   1.14697   1.03302
   20  C   1.06444   1.13869   1.05315   1.04027
   21  C   1.05828   1.03639   1.04948   1.12913
   22  C   1.05824   1.03673   1.04925   1.12916
   23  C   1.06581   0.82816   0.87228   0.80447
   24  C   1.06563   0.82795   0.87225   0.80438
   25  C   1.05894   0.88534   0.97397   1.06612
   26  C   1.05910   0.88530   0.97382   1.06405
   27  C   1.04305   0.82306   0.77869   0.83454
   28  C   1.04284   0.82239   0.77874   0.83432
   29  C   1.07849   1.13777   0.86582   1.03587
   30  C   1.07861   1.00047   0.97372   1.07145
   31  C   1.07842   1.13784   0.86403   1.03675
   32  C   1.07855   0.99975   0.97381   1.07142
   33  C   1.09506   0.95712   1.03166   0.93260
   34  C   1.09277   1.09108   0.92860   0.87931
   35  C   1.09507   0.95478   1.03426   0.93197
   36  C   1.09286   1.09017   0.92919   0.87957
   37  H   0.83539
   38  H   0.84966
   39  H   0.84266
   40  H   0.81532
   41  H   0.83547
   42  H   0.84964
   43  H   0.84260
   44  H   0.81527
   45  H   0.85427
   46  H   0.84256
   47  H   0.84819
   48  H   0.84885
   49  H   0.85424
   50  H   0.84253
   51  H   0.84816
   52  H   0.84888
   53  H   0.86330
   54  H   0.86214
   55  H   0.86326
   56  H   0.86218
   57  H   0.81765
   58  H   0.83247
   59  H   0.82596
   60  H   0.83664
   61  H   0.83242
   62  H   0.81799
   63  H   0.83669
   64  H   0.82594
   65  H   0.84380
   66  H   0.85578
   67  H   0.85071
   68  H   0.85722
   69  H   0.84375
   70  H   0.85581
   71  H   0.85049
   72  H   0.85718
   73  H   0.64610
   74  H   0.63998
   75  H   0.64601
   76  H   0.63995

 **********************
 *                    *
 * JOB ENDED NORMALLY *
 *                    *
 **********************



 TOTAL JOB TIME:            29.27 SECONDS

 == MOPAC DONE ==
