ANIMSTEPS    6
CRYSTAL
PRIMVEC
    0.000000000    2.715000001    2.715000001
    2.715000001    0.000000000    2.715000001
    2.715000001    2.715000001    0.000000000
PRIMCOORD    1
      2   1
   Si     0.00000   0.00000   0.00000   0.00128  -0.05498   0.04444
   Si     1.35750   1.35750   1.35750   0.00128  -0.05498   0.04444
PRIMCOORD    2
      2   1
   Si     0.00000   0.00000   0.00000   0.06970  -0.00647  -0.01001
   Si     1.35750   1.35750   1.35750   0.06970  -0.00647  -0.01001
PRIMCOORD    3
      2   1
   Si     0.00000   0.00000   0.00000   0.01185   0.04399   0.05408
   Si     1.35750   1.35750   1.35750   0.01185   0.04399   0.05408
PRIMCOORD    4
      2   1
   Si     0.00000   0.00000   0.00000   0.07071  -0.00000  -0.00000
   Si     1.35750   1.35750   1.35750  -0.07071   0.00000  -0.00000
PRIMCOORD    5
      2   1
   Si     0.00000   0.00000   0.00000   0.00000   0.00000  -0.07071
   Si     1.35750   1.35750   1.35750   0.00000  -0.00000   0.07071
PRIMCOORD    6
      2   1
   Si     0.00000   0.00000   0.00000   0.00000   0.07071  -0.00000
   Si     1.35750   1.35750   1.35750  -0.00000  -0.07071  -0.00000
