[Molden Format]
[FREQ]
    0.00
    0.00
    0.00
  574.19
  574.19
  574.19
[FR-COORD]
   Si          0.00000        0.00000        0.00000
   Si          2.56530        2.56530        2.56530
[FR-NORM-COORD]
 vibration     1
   0.01278  -0.54983   0.44444
   0.01278  -0.54983   0.44444
 vibration     2
   0.69698  -0.06473  -0.10013
   0.69698  -0.06473  -0.10013
 vibration     3
   0.11854   0.43988   0.54079
   0.11854   0.43988   0.54079
 vibration     4
   0.70711  -0.00000  -0.00000
  -0.70711   0.00000  -0.00000
 vibration     5
   0.00000   0.00000  -0.70711
   0.00000  -0.00000   0.70711
 vibration     6
   0.00000   0.70711  -0.00000
  -0.00000  -0.70711  -0.00000
