 *******************************************************************************
 **                                                                           **
 **                              MOPAC v23.1.2                                **
 **                                                                           **
 *******************************************************************************
 **          Digital Object Identifier (DOI): 10.5281/zenodo.6511958          **
 **    Visit the DOI location for information on how to cite this program.    **
 *******************************************************************************

                              PM7 CALCULATION RESULTS

 *******************************************************************************
 *  CALCULATION DONE: (MAX THREADS = 20)             Tue Aug 26 11:26:07 2025  *
 *  PM7        - The PM7 Hamiltonian to be used
 *  SINGLET    - SPIN STATE DEFINED AS A SINGLET
 *
 *
 *
 *                 CHARGE ON SYSTEM = 0
 *
 *
 *
 *  T=         - A TIME OF 172800.0 SECONDS REQUESTED
 *  DUMP=N     - RESTART FILE WRITTEN EVERY 7200.0 SECONDS REQUESTED
 *  AUX        - OUTPUT AUXILIARY INFORMATION
 *******************************************************************************
 AUX CHARGE=0 SINGLET  PM7
 Title

   ATOM   CHEMICAL          X               Y               Z
  NUMBER   SYMBOL      (ANGSTROMS)     (ANGSTROMS)     (ANGSTROMS)
 
     1       O          3.29032000  *  -2.05154000  *   2.13254000  *
     2       O          3.38887000  *  -1.32215000  *  -0.04381000  *
     3       C          5.77779000  *   4.85102000  *   6.96307000  *
     4       C          6.72481000  *   3.70986000  *   6.51498000  *
     5       C          6.00624000  *   2.39636000  *   6.18211000  *
     6       C          4.96888000  *   2.64276000  *   5.05234000  *
     7       C          6.83624000  *   5.95637000  *   7.27444000  *
     8       C          4.84805000  *   5.12752000  *   5.76694000  *
     9       C          4.16868000  *   1.32599000  *   4.69867000  *
    10       C          7.79885000  *   3.67961000  *   7.59016000  *
    11       C          4.06974000  *   3.87184000  *   5.33743000  *
    12       C          7.98019000  *   5.15491000  *   7.96724000  *
    13       C          7.01242000  *   1.31816000  *   5.74857000  *
    14       C          6.42565000  *   7.21401000  *   8.09895000  *
    15       C          4.94985000  *   4.50800000  *   8.22463000  *
    16       C          5.11811000  *   0.12343000  *   4.59676000  *
    17       C          3.46620000  *   1.53559000  *   3.32487000  *
    18       C          6.38127000  *   0.14962000  *   5.05848000  *
    19       C          3.10471000  *   1.00606000  *   5.77608000  *
    20       C          4.57462000  *  -1.12542000  *   3.93555000  *
    21       C          2.86869000  *   0.26536000  *   2.72111000  *
    22       C          7.64595000  *   8.15993000  *   8.26995000  *
    23       C          3.92171000  *  -0.83524000  *   2.58099000  *
    24       C          5.25404000  *   7.96750000  *   7.46173000  *
    25       C          7.39598000  *   9.35034000  *   9.20603000  *
    26       C          8.69171000  *  10.12924000  *   9.46340000  *
    27       C          8.48042000  *  11.41847000  *  10.27876000  *
    28       C          3.06830000  *  -2.15465000  *   0.79156000  *
    29       C          2.37981000  *  -3.46723000  *   0.49941000  *
    30       C          9.79214000  *  12.20348000  *  10.35739000  *
    31       C          7.96086000  *  11.13881000  *  11.68959000  *
    32       C          1.79423000  *  -3.49954000  *  -0.91105000  *
    33       C          1.03336000  *  -4.80085000  *  -1.16724000  *
    34       C          0.41832000  *  -4.82092000  *  -2.56758000  *
    35       C         -0.37074000  *  -6.10889000  *  -2.80866000  *
    36       C         -1.01384000  *  -6.11756000  *  -4.19644000  *
    37       C         -1.82591000  *  -7.39370000  *  -4.42380000  *
    38       C         -2.49167000  *  -7.39304000  *  -5.80086000  *
    39       C         -3.32061000  *  -8.66019000  *  -6.01742000  *
    40       C         -4.00234000  *  -8.65290000  *  -7.38661000  *
    41       C         -4.84166000  *  -9.91440000  *  -7.59611000  *
    42       C         -5.53264000  *  -9.90332000  *  -8.96066000  *
    43       C         -6.37678000  * -11.16213000  *  -9.16672000  *
    44       C         -7.07089000  * -11.14952000  * -10.52841000  *
    45       C         -7.91237000  * -12.39863000  * -10.73623000  *
    46       H          7.23055000  *   4.03254000  *   5.58890000  *
    47       H          5.49265000  *   2.02907000  *   7.07788000  *
    48       H          5.55515000  *   2.91052000  *   4.15806000  *
    49       H          7.23265000  *   6.31700000  *   6.31273000  *
    50       H          5.43292000  *   5.48938000  *   4.91144000  *
    51       H          4.12197000  *   5.91162000  *   5.99539000  *
    52       H          7.48011000  *   3.09692000  *   8.46169000  *
    53       H          8.73524000  *   3.24403000  *   7.22686000  *
    54       H          3.33637000  *   3.64125000  *   6.11555000  *
    55       H          3.49404000  *   4.12411000  *   4.43973000  *
    56       H          8.95636000  *   5.51848000  *   7.62660000  *
    57       H          7.95169000  *   5.25831000  *   9.05800000  *
    58       H          7.76460000  *   1.74163000  *   5.07136000  *
    59       H          7.55043000  *   0.95450000  *   6.63235000  *
    60       H          6.11342000  *   6.89251000  *   9.10076000  *
    61       H          4.24686000  *   5.31214000  *   8.46369000  *
    62       H          5.57896000  *   4.35939000  *   9.10796000  *
    63       H          4.35475000  *   3.59882000  *   8.10550000  *
    64       H          4.18566000  *   1.94487000  *   2.60250000  *
    65       H          2.66500000  *   2.27861000  *   3.41636000  *
    66       H          7.01918000  *  -0.72474000  *   4.94299000  *
    67       H          3.54253000  *   0.95824000  *   6.77841000  *
    68       H          2.61143000  *   0.04391000  *   5.60211000  *
    69       H          2.30771000  *   1.75648000  *   5.79255000  *
    70       H          5.36163000  *  -1.87706000  *   3.79012000  *
    71       H          3.84854000  *  -1.60614000  *   4.60361000  *
    72       H          2.02716000  *  -0.09290000  *   3.32673000  *
    73       H          2.43837000  *   0.49877000  *   1.73993000  *
    74       H          8.49278000  *   7.59555000  *   8.67592000  *
    75       H          7.96059000  *   8.53198000  *   7.28645000  *
    76       H          4.70346000  *  -0.53174000  *   1.87166000  *
    77       H          5.01870000  *   8.88969000  *   7.99946000  *
    78       H          4.33729000  *   7.37620000  *   7.49161000  *
    79       H          5.46924000  *   8.22844000  *   6.42047000  *
    80       H          6.66062000  *  10.03165000  *   8.76648000  *
    81       H          6.98551000  *   8.98127000  *  10.15203000  *
    82       H          9.14010000  *  10.39256000  *   8.49661000  *
    83       H          9.41180000  *   9.47947000  *   9.97704000  *
    84       H          7.74474000  *  12.04631000  *   9.76024000  *
    85       H          1.57235000  *  -3.60073000  *   1.22873000  *
    86       H          3.11042000  *  -4.27315000  *   0.62718000  *
    87       H         10.15854000  *  12.45094000  *   9.35542000  *
    88       H          9.65137000  *  13.14374000  *  10.90104000  *
    89       H         10.56995000  *  11.62791000  *  10.87076000  *
    90       H          7.88436000  *  12.06721000  *  12.26601000  *
    91       H          8.62786000  *  10.45946000  *  12.23097000  *
    92       H          6.96296000  *  10.69086000  *  11.66546000  *
    93       H          1.12093000  *  -2.64420000  *  -1.04939000  *
    94       H          2.59868000  *  -3.38951000  *  -1.64891000  *
    95       H          0.24037000  *  -4.91478000  *  -0.41802000  *
    96       H          1.71304000  *  -5.65372000  *  -1.05086000  *
    97       H          1.21098000  *  -4.72773000  *  -3.31981000  *
    98       H         -0.24581000  *  -3.95641000  *  -2.68851000  *
    99       H         -1.15028000  *  -6.20930000  *  -2.04356000  *
   100       H          0.29597000  *  -6.97371000  *  -2.70621000  *
   101       H         -0.23487000  *  -6.03462000  *  -4.96403000  *
   102       H         -1.66760000  *  -5.24333000  *  -4.30306000  *
   103       H         -1.17029000  *  -8.26818000  *  -4.33222000  *
   104       H         -2.59404000  *  -7.48269000  *  -3.64586000  *
   105       H         -3.13764000  *  -6.51170000  *  -5.89565000  *
   106       H         -1.72425000  *  -7.31711000  *  -6.58073000  *
   107       H         -2.67345000  *  -9.54171000  *  -5.93327000  *
   108       H         -4.08026000  *  -8.74050000  *  -5.23029000  *
   109       H         -3.24331000  *  -8.58073000  *  -8.17501000  *
   110       H         -4.64351000  *  -7.76718000  *  -7.47274000  *
   111       H         -4.19987000  * -10.80022000  *  -7.51610000  *
   112       H         -5.59616000  *  -9.98910000  *  -6.80353000  *
   113       H         -6.17167000  *  -9.01555000  *  -9.04150000  *
   114       H         -4.77853000  *  -9.83237000  *  -9.75390000  *
   115       H         -7.12911000  * -11.23424000  *  -8.37180000  *
   116       H         -5.73774000  * -12.05010000  *  -9.08810000  *
   117       H         -6.32309000  * -11.08263000  * -11.32715000  *
   118       H         -7.71369000  * -10.26535000  * -10.61069000  *
   119       H         -8.39970000  * -12.36872000  * -11.71578000  *
   120       H         -8.69156000  * -12.47846000  *  -9.97147000  *
   121       H         -7.29345000  * -13.30046000  * -10.69203000  *
 


          CARTESIAN COORDINATES 

    NO.       ATOM           X           Y           Z

     1         O          3.2903     -2.0515      2.1325
     2         O          3.3889     -1.3222     -0.0438
     3         C          5.7778      4.8510      6.9631
     4         C          6.7248      3.7099      6.5150
     5         C          6.0062      2.3964      6.1821
     6         C          4.9689      2.6428      5.0523
     7         C          6.8362      5.9564      7.2744
     8         C          4.8480      5.1275      5.7669
     9         C          4.1687      1.3260      4.6987
    10         C          7.7988      3.6796      7.5902
    11         C          4.0697      3.8718      5.3374
    12         C          7.9802      5.1549      7.9672
    13         C          7.0124      1.3182      5.7486
    14         C          6.4257      7.2140      8.0990
    15         C          4.9498      4.5080      8.2246
    16         C          5.1181      0.1234      4.5968
    17         C          3.4662      1.5356      3.3249
    18         C          6.3813      0.1496      5.0585
    19         C          3.1047      1.0061      5.7761
    20         C          4.5746     -1.1254      3.9356
    21         C          2.8687      0.2654      2.7211
    22         C          7.6460      8.1599      8.2699
    23         C          3.9217     -0.8352      2.5810
    24         C          5.2540      7.9675      7.4617
    25         C          7.3960      9.3503      9.2060
    26         C          8.6917     10.1292      9.4634
    27         C          8.4804     11.4185     10.2788
    28         C          3.0683     -2.1547      0.7916
    29         C          2.3798     -3.4672      0.4994
    30         C          9.7921     12.2035     10.3574
    31         C          7.9609     11.1388     11.6896
    32         C          1.7942     -3.4995     -0.9111
    33         C          1.0334     -4.8009     -1.1672
    34         C          0.4183     -4.8209     -2.5676
    35         C         -0.3707     -6.1089     -2.8087
    36         C         -1.0138     -6.1176     -4.1964
    37         C         -1.8259     -7.3937     -4.4238
    38         C         -2.4917     -7.3930     -5.8009
    39         C         -3.3206     -8.6602     -6.0174
    40         C         -4.0023     -8.6529     -7.3866
    41         C         -4.8417     -9.9144     -7.5961
    42         C         -5.5326     -9.9033     -8.9607
    43         C         -6.3768    -11.1621     -9.1667
    44         C         -7.0709    -11.1495    -10.5284
    45         C         -7.9124    -12.3986    -10.7362
    46         H          7.2306      4.0325      5.5889
    47         H          5.4927      2.0291      7.0779
    48         H          5.5552      2.9105      4.1581
    49         H          7.2326      6.3170      6.3127
    50         H          5.4329      5.4894      4.9114
    51         H          4.1220      5.9116      5.9954
    52         H          7.4801      3.0969      8.4617
    53         H          8.7352      3.2440      7.2269
    54         H          3.3364      3.6413      6.1155
    55         H          3.4940      4.1241      4.4397
    56         H          8.9564      5.5185      7.6266
    57         H          7.9517      5.2583      9.0580
    58         H          7.7646      1.7416      5.0714
    59         H          7.5504      0.9545      6.6323
    60         H          6.1134      6.8925      9.1008
    61         H          4.2469      5.3121      8.4637
    62         H          5.5790      4.3594      9.1080
    63         H          4.3548      3.5988      8.1055
    64         H          4.1857      1.9449      2.6025
    65         H          2.6650      2.2786      3.4164
    66         H          7.0192     -0.7247      4.9430
    67         H          3.5425      0.9582      6.7784
    68         H          2.6114      0.0439      5.6021
    69         H          2.3077      1.7565      5.7926
    70         H          5.3616     -1.8771      3.7901
    71         H          3.8485     -1.6061      4.6036
    72         H          2.0272     -0.0929      3.3267
    73         H          2.4384      0.4988      1.7399
    74         H          8.4928      7.5956      8.6759
    75         H          7.9606      8.5320      7.2865
    76         H          4.7035     -0.5317      1.8717
    77         H          5.0187      8.8897      7.9995
    78         H          4.3373      7.3762      7.4916
    79         H          5.4692      8.2284      6.4205
    80         H          6.6606     10.0317      8.7665
    81         H          6.9855      8.9813     10.1520
    82         H          9.1401     10.3926      8.4966
    83         H          9.4118      9.4795      9.9770
    84         H          7.7447     12.0463      9.7602
    85         H          1.5724     -3.6007      1.2287
    86         H          3.1104     -4.2732      0.6272
    87         H         10.1585     12.4509      9.3554
    88         H          9.6514     13.1437     10.9010
    89         H         10.5700     11.6279     10.8708
    90         H          7.8844     12.0672     12.2660
    91         H          8.6279     10.4595     12.2310
    92         H          6.9630     10.6909     11.6655
    93         H          1.1209     -2.6442     -1.0494
    94         H          2.5987     -3.3895     -1.6489
    95         H          0.2404     -4.9148     -0.4180
    96         H          1.7130     -5.6537     -1.0509
    97         H          1.2110     -4.7277     -3.3198
    98         H         -0.2458     -3.9564     -2.6885
    99         H         -1.1503     -6.2093     -2.0436
   100         H          0.2960     -6.9737     -2.7062
   101         H         -0.2349     -6.0346     -4.9640
   102         H         -1.6676     -5.2433     -4.3031
   103         H         -1.1703     -8.2682     -4.3322
   104         H         -2.5940     -7.4827     -3.6459
   105         H         -3.1376     -6.5117     -5.8956
   106         H         -1.7243     -7.3171     -6.5807
   107         H         -2.6734     -9.5417     -5.9333
   108         H         -4.0803     -8.7405     -5.2303
   109         H         -3.2433     -8.5807     -8.1750
   110         H         -4.6435     -7.7672     -7.4727
   111         H         -4.1999    -10.8002     -7.5161
   112         H         -5.5962     -9.9891     -6.8035
   113         H         -6.1717     -9.0155     -9.0415
   114         H         -4.7785     -9.8324     -9.7539
   115         H         -7.1291    -11.2342     -8.3718
   116         H         -5.7377    -12.0501     -9.0881
   117         H         -6.3231    -11.0826    -11.3271
   118         H         -7.7137    -10.2653    -10.6107
   119         H         -8.3997    -12.3687    -11.7158
   120         H         -8.6916    -12.4785     -9.9715
   121         H         -7.2934    -13.3005    -10.6920

 General Reference for PM7:
 "Optimization of Parameters for Semiempirical Methods VI: More Modifications to the 
 NDDO Approximations and Re-optimization of Parameters", J. J. P. Stewart, J. Mol. Mod., 1:32, 19 (2013)
 https://link.springer.com/article/10.1007/s00894-012-1667-x

           Empirical Formula: C43 H76 O2  =   121 atoms



      MOLECULAR POINT GROUP   :   C1  


 SINGLET STATE CALCULATION


      RHF CALCULATION, NO. OF DOUBLY OCCUPIED LEVELS = 130


          Geometry optimization using L-BFGS
 CYCLE:     1 TIME:   0.141 TIME LEFT:  2.00D  GRAD.:    96.617 HEAT: -234.0405
 CYCLE:     2 TIME:   0.043 TIME LEFT:  2.00D  GRAD.:    95.135 HEAT: -234.1331
 CYCLE:     3 TIME:   0.047 TIME LEFT:  2.00D  GRAD.:    44.074 HEAT: -238.7680
 CYCLE:     4 TIME:   0.051 TIME LEFT:  2.00D  GRAD.:    95.086 HEAT: -234.1331
 CYCLE:     5 TIME:   0.043 TIME LEFT:  2.00D  GRAD.:    88.554 HEAT: -236.0661
 CYCLE:     6 TIME:   0.055 TIME LEFT:  2.00D  GRAD.:  2279.705 HEAT: -17.06321
 CYCLE:     7 TIME:   0.051 TIME LEFT:  2.00D  GRAD.:    57.817 HEAT: -239.3291
 CYCLE:     8 TIME:   0.055 TIME LEFT:  2.00D  GRAD.:    40.087 HEAT: -239.6362
 CYCLE:     9 TIME:   0.047 TIME LEFT:  2.00D  GRAD.:    21.686 HEAT: -240.2176
 CYCLE:    10 TIME:   0.043 TIME LEFT:  2.00D  GRAD.:    27.787 HEAT: -240.5745
 CYCLE:    11 TIME:   0.047 TIME LEFT:  2.00D  GRAD.:    27.061 HEAT: -240.9966
 CYCLE:    12 TIME:   0.039 TIME LEFT:  2.00D  GRAD.:    28.355 HEAT: -241.5403
 CYCLE:    13 TIME:   0.043 TIME LEFT:  2.00D  GRAD.:    84.010 HEAT: -240.8258
 CYCLE:    14 TIME:   0.059 TIME LEFT:  2.00D  GRAD.:    12.024 HEAT: -241.7708
 CYCLE:    15 TIME:   0.047 TIME LEFT:  2.00D  GRAD.:    10.345 HEAT: -241.8019
 CYCLE:    16 TIME:   0.047 TIME LEFT:  2.00D  GRAD.:    12.541 HEAT: -241.9153
 CYCLE:    17 TIME:   0.047 TIME LEFT:  2.00D  GRAD.:    14.711 HEAT: -242.0517
 CYCLE:    18 TIME:   0.039 TIME LEFT:  2.00D  GRAD.:    14.922 HEAT: -242.2064
 CYCLE:    19 TIME:   0.051 TIME LEFT:  2.00D  GRAD.:    23.267 HEAT: -242.3033
 CYCLE:    20 TIME:   0.051 TIME LEFT:  2.00D  GRAD.:     8.332 HEAT: -242.4716
 CYCLE:    21 TIME:   0.043 TIME LEFT:  2.00D  GRAD.:     6.308 HEAT: -242.5274
 CYCLE:    22 TIME:   0.043 TIME LEFT:  2.00D  GRAD.:     7.390 HEAT: -242.5851
 CYCLE:    23 TIME:   0.047 TIME LEFT:  2.00D  GRAD.:    24.006 HEAT: -242.6315
 CYCLE:    24 TIME:   0.039 TIME LEFT:  2.00D  GRAD.:    11.522 HEAT: -242.7295
 CYCLE:    25 TIME:   0.043 TIME LEFT:  2.00D  GRAD.:     7.576 HEAT: -242.8182
 CYCLE:    26 TIME:   0.043 TIME LEFT:  2.00D  GRAD.:     9.274 HEAT: -242.8779
 CYCLE:    27 TIME:   0.047 TIME LEFT:  2.00D  GRAD.:     8.451 HEAT: -242.9693
 CYCLE:    28 TIME:   0.043 TIME LEFT:  2.00D  GRAD.:    45.342 HEAT: -242.7675
 CYCLE:    29 TIME:   0.047 TIME LEFT:  2.00D  GRAD.:     6.425 HEAT: -243.0594
 CYCLE:    30 TIME:   0.047 TIME LEFT:  2.00D  GRAD.:     5.046 HEAT: -243.0832
 CYCLE:    31 TIME:   0.047 TIME LEFT:  2.00D  GRAD.:     6.509 HEAT: -243.1083
 CYCLE:    32 TIME:   0.047 TIME LEFT:  2.00D  GRAD.:     6.889 HEAT: -243.1592
 CYCLE:    33 TIME:   0.051 TIME LEFT:  2.00D  GRAD.:     7.628 HEAT: -243.2374
 CYCLE:    34 TIME:   0.043 TIME LEFT:  2.00D  GRAD.:    19.370 HEAT: -243.1785
 CYCLE:    35 TIME:   0.043 TIME LEFT:  2.00D  GRAD.:     3.422 HEAT: -243.3016
 CYCLE:    36 TIME:   0.043 TIME LEFT:  2.00D  GRAD.:     3.027 HEAT: -243.3148
 CYCLE:    37 TIME:   0.043 TIME LEFT:  2.00D  GRAD.:     6.287 HEAT: -243.3517
 CYCLE:    38 TIME:   0.039 TIME LEFT:  2.00D  GRAD.:    17.830 HEAT: -243.3484
 CYCLE:    39 TIME:   0.043 TIME LEFT:  2.00D  GRAD.:     5.412 HEAT: -243.3926
 CYCLE:    40 TIME:   0.051 TIME LEFT:  2.00D  GRAD.:     3.427 HEAT: -243.4073
 CYCLE:    41 TIME:   0.055 TIME LEFT:  2.00D  GRAD.:     4.425 HEAT: -243.4248
 CYCLE:    42 TIME:   0.047 TIME LEFT:  2.00D  GRAD.:     5.184 HEAT: -243.4491
 CYCLE:    43 TIME:   0.051 TIME LEFT:  2.00D  GRAD.:    14.740 HEAT: -243.4552
 CYCLE:    44 TIME:   0.043 TIME LEFT:  2.00D  GRAD.:     3.595 HEAT: -243.5018
 CYCLE:    45 TIME:   0.043 TIME LEFT:  2.00D  GRAD.:     3.162 HEAT: -243.5113
 CYCLE:    46 TIME:   0.039 TIME LEFT:  2.00D  GRAD.:     3.390 HEAT: -243.5382
 CYCLE:    47 TIME:   0.047 TIME LEFT:  2.00D  GRAD.:    12.133 HEAT: -243.5335
 CYCLE:    48 TIME:   0.051 TIME LEFT:  2.00D  GRAD.:     3.633 HEAT: -243.5751
 CYCLE:    49 TIME:   0.043 TIME LEFT:  2.00D  GRAD.:     2.693 HEAT: -243.5855
 CYCLE:    50 TIME:   0.047 TIME LEFT:  2.00D  GRAD.:     3.445 HEAT: -243.6047
 CYCLE:    51 TIME:   0.043 TIME LEFT:  2.00D  GRAD.:     4.533 HEAT: -243.6249
 CYCLE:    52 TIME:   0.051 TIME LEFT:  2.00D  GRAD.:     5.500 HEAT: -243.6379
 CYCLE:    53 TIME:   0.039 TIME LEFT:  2.00D  GRAD.:     4.354 HEAT: -243.6486
 CYCLE:    54 TIME:   0.047 TIME LEFT:  2.00D  GRAD.:     2.883 HEAT: -243.6551
 CYCLE:    55 TIME:   0.035 TIME LEFT:  2.00D  GRAD.:     2.241 HEAT: -243.6627
 CYCLE:    56 TIME:   0.043 TIME LEFT:  2.00D  GRAD.:     3.391 HEAT: -243.6732
 CYCLE:    57 TIME:   0.047 TIME LEFT:  2.00D  GRAD.:     2.208 HEAT: -243.6808
 CYCLE:    58 TIME:   0.047 TIME LEFT:  2.00D  GRAD.:     1.841 HEAT: -243.6872
 CYCLE:    59 TIME:   0.047 TIME LEFT:  2.00D  GRAD.:     5.158 HEAT: -243.6921
 CYCLE:    60 TIME:   0.047 TIME LEFT:  2.00D  GRAD.:     2.331 HEAT: -243.6988
 CYCLE:    61 TIME:   0.047 TIME LEFT:  2.00D  GRAD.:     2.097 HEAT: -243.7027
 CYCLE:    62 TIME:   0.055 TIME LEFT:  2.00D  GRAD.:     1.764 HEAT: -243.7102
 CYCLE:    63 TIME:   0.055 TIME LEFT:  2.00D  GRAD.:     3.202 HEAT: -243.7160
 CYCLE:    64 TIME:   0.047 TIME LEFT:  2.00D  GRAD.:     1.699 HEAT: -243.7221
 CYCLE:    65 TIME:   0.047 TIME LEFT:  2.00D  GRAD.:     1.390 HEAT: -243.7259
 CYCLE:    66 TIME:   0.055 TIME LEFT:  2.00D  GRAD.:     1.846 HEAT: -243.7305
 CYCLE:    67 TIME:   0.039 TIME LEFT:  2.00D  GRAD.:     2.620 HEAT: -243.7343
 CYCLE:    68 TIME:   0.051 TIME LEFT:  2.00D  GRAD.:     1.893 HEAT: -243.7376
 CYCLE:    69 TIME:   0.055 TIME LEFT:  2.00D  GRAD.:     1.694 HEAT: -243.7404
 CYCLE:    70 TIME:   0.051 TIME LEFT:  2.00D  GRAD.:     1.628 HEAT: -243.7422
 CYCLE:    71 TIME:   0.062 TIME LEFT:  2.00D  GRAD.:     1.802 HEAT: -243.7441
 CYCLE:    72 TIME:   0.047 TIME LEFT:  2.00D  GRAD.:     1.665 HEAT: -243.7486
 CYCLE:    73 TIME:   0.055 TIME LEFT:  2.00D  GRAD.:     3.097 HEAT: -243.7509
 CYCLE:    74 TIME:   0.043 TIME LEFT:  2.00D  GRAD.:     1.958 HEAT: -243.7536
 CYCLE:    75 TIME:   0.047 TIME LEFT:  2.00D  GRAD.:     1.317 HEAT: -243.7555
 CYCLE:    76 TIME:   0.047 TIME LEFT:  2.00D  GRAD.:     1.133 HEAT: -243.7574
 CYCLE:    77 TIME:   0.043 TIME LEFT:  2.00D  GRAD.:     1.311 HEAT: -243.7597
 CYCLE:    78 TIME:   0.043 TIME LEFT:  2.00D  GRAD.:     1.843 HEAT: -243.7634
 CYCLE:    79 TIME:   0.047 TIME LEFT:  2.00D  GRAD.:     2.276 HEAT: -243.7665
 CYCLE:    80 TIME:   0.051 TIME LEFT:  2.00D  GRAD.:     1.414 HEAT: -243.7699
 CYCLE:    81 TIME:   0.043 TIME LEFT:  2.00D  GRAD.:     1.669 HEAT: -243.7748
 CYCLE:    82 TIME:   0.043 TIME LEFT:  2.00D  GRAD.:     2.824 HEAT: -243.7778
 CYCLE:    83 TIME:   0.047 TIME LEFT:  2.00D  GRAD.:     2.531 HEAT: -243.7824
 CYCLE:    84 TIME:   0.043 TIME LEFT:  2.00D  GRAD.:     2.770 HEAT: -243.7866
 CYCLE:    85 TIME:   0.043 TIME LEFT:  2.00D  GRAD.:     2.046 HEAT: -243.7911
 CYCLE:    86 TIME:   0.055 TIME LEFT:  2.00D  GRAD.:     1.652 HEAT: -243.7943
 CYCLE:    87 TIME:   0.035 TIME LEFT:  2.00D  GRAD.:     1.449 HEAT: -243.7985
 CYCLE:    88 TIME:   0.043 TIME LEFT:  2.00D  GRAD.:     5.202 HEAT: -243.7996
 CYCLE:    89 TIME:   0.051 TIME LEFT:  2.00D  GRAD.:     2.044 HEAT: -243.8045
 CYCLE:    90 TIME:   0.047 TIME LEFT:  2.00D  GRAD.:     1.501 HEAT: -243.8066
 CYCLE:    91 TIME:   0.047 TIME LEFT:  2.00D  GRAD.:     1.537 HEAT: -243.8088
 CYCLE:    92 TIME:   0.047 TIME LEFT:  2.00D  GRAD.:     2.195 HEAT: -243.8129
 CYCLE:    93 TIME:   0.039 TIME LEFT:  2.00D  GRAD.:     5.270 HEAT: -243.8105
 CYCLE:    94 TIME:   0.039 TIME LEFT:  2.00D  GRAD.:     1.526 HEAT: -243.8175
 CYCLE:    95 TIME:   0.043 TIME LEFT:  2.00D  GRAD.:     1.005 HEAT: -243.8192
 CYCLE:    96 TIME:   0.043 TIME LEFT:  2.00D  GRAD.:     1.296 HEAT: -243.8224
 CYCLE:    97 TIME:   0.051 TIME LEFT:  2.00D  GRAD.:     1.655 HEAT: -243.8258
 CYCLE:    98 TIME:   0.043 TIME LEFT:  2.00D  GRAD.:     5.394 HEAT: -243.8257
 CYCLE:    99 TIME:   0.059 TIME LEFT:  2.00D  GRAD.:     2.519 HEAT: -243.8295
 CYCLE:   100 TIME:   0.043 TIME LEFT:  2.00D  GRAD.:     1.161 HEAT: -243.8315
 CYCLE:   101 TIME:   0.043 TIME LEFT:  2.00D  GRAD.:     1.356 HEAT: -243.8328
 CYCLE:   102 TIME:   0.055 TIME LEFT:  2.00D  GRAD.:     1.716 HEAT: -243.8353
 CYCLE:   103 TIME:   0.047 TIME LEFT:  2.00D  GRAD.:     3.303 HEAT: -243.8383
 CYCLE:   104 TIME:   0.039 TIME LEFT:  2.00D  GRAD.:     1.541 HEAT: -243.8415
 CYCLE:   105 TIME:   0.047 TIME LEFT:  2.00D  GRAD.:     1.381 HEAT: -243.8434
 CYCLE:   106 TIME:   0.043 TIME LEFT:  2.00D  GRAD.:     1.417 HEAT: -243.8475
 CYCLE:   107 TIME:   0.047 TIME LEFT:  2.00D  GRAD.:     3.414 HEAT: -243.8502
 CYCLE:   108 TIME:   0.039 TIME LEFT:  2.00D  GRAD.:     1.910 HEAT: -243.8548
 CYCLE:   109 TIME:   0.043 TIME LEFT:  2.00D  GRAD.:     1.490 HEAT: -243.8582
 CYCLE:   110 TIME:   0.047 TIME LEFT:  2.00D  GRAD.:     2.750 HEAT: -243.8639
 CYCLE:   111 TIME:   0.051 TIME LEFT:  2.00D  GRAD.:     2.619 HEAT: -243.8688
 CYCLE:   112 TIME:   0.051 TIME LEFT:  2.00D  GRAD.:     2.460 HEAT: -243.8734
 CYCLE:   113 TIME:   0.043 TIME LEFT:  2.00D  GRAD.:     2.609 HEAT: -243.8764
 CYCLE:   114 TIME:   0.039 TIME LEFT:  2.00D  GRAD.:     2.005 HEAT: -243.8790
 CYCLE:   115 TIME:   0.055 TIME LEFT:  2.00D  GRAD.:     1.273 HEAT: -243.8845
 CYCLE:   116 TIME:   0.043 TIME LEFT:  2.00D  GRAD.:     2.055 HEAT: -243.8901
 CYCLE:   117 TIME:   0.047 TIME LEFT:  2.00D  GRAD.:     2.541 HEAT: -243.8941
 CYCLE:   118 TIME:   0.047 TIME LEFT:  2.00D  GRAD.:     3.274 HEAT: -243.8967
 CYCLE:   119 TIME:   0.043 TIME LEFT:  2.00D  GRAD.:     1.393 HEAT: -243.8999
 CYCLE:   120 TIME:   0.051 TIME LEFT:  2.00D  GRAD.:     1.376 HEAT: -243.9017
 CYCLE:   121 TIME:   0.047 TIME LEFT:  2.00D  GRAD.:     1.188 HEAT: -243.9044
 CYCLE:   122 TIME:   0.059 TIME LEFT:  2.00D  GRAD.:     1.553 HEAT: -243.9092
 CYCLE:   123 TIME:   0.055 TIME LEFT:  2.00D  GRAD.:     3.120 HEAT: -243.9097
 CYCLE:   124 TIME:   0.047 TIME LEFT:  2.00D  GRAD.:     1.067 HEAT: -243.9134
 CYCLE:   125 TIME:   0.043 TIME LEFT:  2.00D  GRAD.:     0.830 HEAT: -243.9148

 -------------------------------------------------------------------------------
 AUX CHARGE=0 SINGLET  PM7
 Title



     HERBERTS TEST WAS SATISFIED IN BFGS                      
     SCF FIELD WAS ACHIEVED                                   


                              PM7 CALCULATION
                                                       MOPAC v23.1.2 Linux
                                                       Tue Aug 26 11:26:13 2025




          FINAL HEAT OF FORMATION =       -243.91481 KCAL/MOL =   -1020.53957 KJ/MOL


          COSMO AREA              =        756.04 SQUARE ANGSTROMS
          COSMO VOLUME            =        897.85 CUBIC ANGSTROMS

          GRADIENT NORM           =          0.82963          =       0.07542 PER ATOM
          IONIZATION POTENTIAL    =          9.248282 EV
          HOMO LUMO ENERGIES (EV) =         -9.248  1.238
          NO. OF FILLED LEVELS    =        130
          MOLECULAR WEIGHT        =        625.0722         POINT GROUP:  C1  

          MOLECULAR DIMENSIONS (Angstroms)

            Atom       Atom       Distance
            H   119    H    88    38.37990
            H    66    H   118     7.32070
            H   101    H    67     4.64499


          SCF CALCULATIONS        =        126
 
          WALL-CLOCK TIME         =      5.965 SECONDS
          COMPUTATION TIME        =     56.007 SECONDS




   ATOM   CHEMICAL          X               Y               Z
  NUMBER   SYMBOL      (ANGSTROMS)     (ANGSTROMS)     (ANGSTROMS)
 
     1       O          3.24249874  *  -1.93095518  *   2.15866177  *
     2       O          3.21672883  *  -1.19242593  *   0.03721031  *
     3       C          5.86667060  *   4.83268513  *   6.83549234  *
     4       C          6.79405331  *   3.64926436  *   6.42350182  *
     5       C          6.00907017  *   2.36457912  *   6.15699727  *
     6       C          5.04156596  *   2.63594032  *   4.98046690  *
     7       C          6.93371675  *   5.92339105  *   7.15837639  *
     8       C          4.97580563  *   5.12485890  *   5.62074401  *
     9       C          4.17876983  *   1.37412359  *   4.66699810  *
    10       C          7.85999633  *   3.62685012  *   7.52592104  *
    11       C          4.16332708  *   3.87517899  *   5.24117174  *
    12       C          8.06345489  *   5.12020843  *   7.87221097  *
    13       C          6.97924313  *   1.23297417  *   5.77607491  *
    14       C          6.47514085  *   7.12902685  *   8.00206964  *
    15       C          5.01534703  *   4.52426297  *   8.07133821  *
    16       C          5.06079665  *   0.14791459  *   4.59251746  *
    17       C          3.48306441  *   1.62670018  *   3.30381569  *
    18       C          6.29464789  *   0.09244263  *   5.10707067  *
    19       C          3.12814069  *   1.11683202  *   5.76097912  *
    20       C          4.46793488  *  -1.07507597  *   3.95610957  *
    21       C          2.82278903  *   0.37852880  *   2.71874402  *
    22       C          7.66186395  *   8.10350126  *   8.17881017  *
    23       C          3.88011844  *  -0.71576337  *   2.58836033  *
    24       C          5.30684516  *   7.86483498  *   7.33469011  *
    25       C          7.36832503  *   9.18617088  *   9.22551178  *
    26       C          8.62272476  *  10.02941246  *   9.49131073  *
    27       C          8.30200367  *  11.28910249  *  10.31786749  *
    28       C          2.95599773  *  -2.05111724  *   0.83955562  *
    29       C          2.30056862  *  -3.37633325  *   0.59045709  *
    30       C          9.53631540  *  12.20061278  *  10.36554260  *
    31       C          7.87119684  *  10.92355016  *  11.74295316  *
    32       C          1.71158076  *  -3.41178103  *  -0.82260311  *
    33       C          1.00189230  *  -4.74528703  *  -1.08002312  *
    34       C          0.40458432  *  -4.77241639  *  -2.49318079  *
    35       C         -0.35331585  *  -6.08358059  *  -2.73751098  *
    36       C         -0.98288107  *  -6.09460417  *  -4.13653164  *
    37       C         -1.78684620  *  -7.38162050  *  -4.36208871  *
    38       C         -2.44882165  *  -7.37281657  *  -5.74625718  *
    39       C         -3.27873397  *  -8.64545919  *  -5.95903807  *
    40       C         -3.95846938  *  -8.62843380  *  -7.33411448  *
    41       C         -4.79931946  *  -9.89515345  *  -7.54097083  *
    42       C         -5.48338414  *  -9.87103266  *  -8.91397644  *
    43       C         -6.33109743  * -11.13179933  *  -9.12496074  *
    44       C         -7.01329773  * -11.10458920  * -10.49953730  *
    45       C         -7.86162854  * -12.35840701  * -10.71262636  *
    46       H          7.30481468  *   3.93324753  *   5.46652224  *
    47       H          5.43315245  *   2.06348075  *   7.05897470  *
    48       H          5.66984725  *   2.84371086  *   4.07823954  *
    49       H          7.32566193  *   6.31394632  *   6.19138214  *
    50       H          5.59238588  *   5.45165097  *   4.76416404  *
    51       H          4.28468167  *   5.96008873  *   5.83075246  *
    52       H          7.51852033  *   3.05514165  *   8.40293220  *
    53       H          8.79313005  *   3.15395803  *   7.18945333  *
    54       H          3.43535035  *   3.66266040  *   6.04635213  *
    55       H          3.56234122  *   4.09963056  *   4.33992245  *
    56       H          9.05154347  *   5.46938699  *   7.53838990  *
    57       H          8.02661316  *   5.27122254  *   8.96192280  *
    58       H          7.77300380  *   1.62149737  *   5.10127424  *
    59       H          7.51000725  *   0.88452286  *   6.68536888  *
    60       H          6.15047568  *   6.77064651  *   9.00663171  *
    61       H          4.33010558  *   5.34722662  *   8.29784781  *
    62       H          5.64122303  *   4.35935376  *   8.95520304  *
    63       H          4.40814228  *   3.62351196  *   7.93210491  *
    64       H          4.22718397  *   2.01649882  *   2.58052033  *
    65       H          2.72421861  *   2.42310930  *   3.41825390  *
    66       H          6.89271384  *  -0.81613776  *   5.05083940  *
    67       H          3.60208732  *   1.01589213  *   6.74386160  *
    68       H          2.57249656  *   0.19230578  *   5.56880002  *
    69       H          2.39501588  *   1.92678035  *   5.82057330  *
    70       H          5.21194565  *  -1.88809370  *   3.84329253  *
    71       H          3.67706575  *  -1.50070669  *   4.60997662  *
    72       H          1.98489549  *   0.03565007  *   3.35250018  *
    73       H          2.38221611  *   0.60330051  *   1.72721232  *
    74       H          8.56746536  *   7.54535550  *   8.48013865  *
    75       H          7.90563331  *   8.57263801  *   7.20807463  *
    76       H          4.67049530  *  -0.44830306  *   1.85332260  *
    77       H          5.06955985  *   8.79684698  *   7.85952287  *
    78       H          4.39548408  *   7.25716929  *   7.33864786  *
    79       H          5.53706673  *   8.12127662  *   6.29553392  *
    80       H          6.54279903  *   9.83623314  *   8.88124810  *
    81       H          7.01760353  *   8.72127490  *  10.16515002  *
    82       H          9.08005621  *  10.32957504  *   8.52932978  *
    83       H          9.38501113  *   9.42121680  *  10.01091501  *
    84       H          7.46898139  *  11.84211853  *   9.82072025  *
    85       H          1.51544583  *  -3.56486976  *   1.35303799  *
    86       H          3.04576778  *  -4.18863215  *   0.72865976  *
    87       H          9.84692164  *  12.50630590  *   9.36116473  *
    88       H          9.33409376  *  13.11146104  *  10.93878541  *
    89       H         10.38684751  *  11.69715779  *  10.83701921  *
    90       H          7.65396920  *  11.82012145  *  12.33306286  *
    91       H          8.65367659  *  10.36381594  *  12.26589020  *
    92       H          6.96759253  *  10.30475396  *  11.74169989  *
    93       H          1.00766463  *  -2.56732841  *  -0.96240538  *
    94       H          2.51222321  *  -3.24730449  *  -1.57192714  *
    95       H          0.20327522  *  -4.90230528  *  -0.33068377  *
    96       H          1.70906520  *  -5.58620401  *  -0.95341294  *
    97       H          1.20510777  *  -4.65152080  *  -3.24686798  *
    98       H         -0.27598473  *  -3.91153201  *  -2.63380123  *
    99       H         -1.13839650  *  -6.21550511  *  -1.96980850  *
   100       H          0.33040349  *  -6.94489646  *  -2.62326138  *
   101       H         -0.19568870  *  -5.99967269  *  -4.90739583  *
   102       H         -1.63937672  *  -5.21323736  *  -4.26243121  *
   103       H         -1.12729370  *  -8.26363604  *  -4.26326447  *
   104       H         -2.55764509  *  -7.48879700  *  -3.57609812  *
   105       H         -3.09289492  *  -6.47990387  *  -5.85195878  *
   106       H         -1.67837663  *  -7.28659852  *  -6.53477836  *
   107       H         -2.63325546  *  -9.53847618  *  -5.86690840  *
   108       H         -4.04051919  *  -8.73778354  *  -5.16273112  *
   109       H         -3.19735399  *  -8.54488087  *  -8.13198087  *
   110       H         -4.59799400  *  -7.73116306  *  -7.42917690  *
   111       H         -4.16045194  * -10.79329330  *  -7.45132966  *
   112       H         -5.55837894  *  -9.98117226  *  -6.74130752  *
   113       H         -6.11853783  *  -8.97007209  *  -9.00387157  *
   114       H         -4.72360264  *  -9.78883411  *  -9.71336812  *
   115       H         -7.09273022  * -11.21558255  *  -8.32781949  *
   116       H         -5.69907780  * -12.03459431  *  -9.03573653  *
   117       H         -6.25225799  * -11.02324445  * -11.29833387  *
   118       H         -7.64539354  * -10.20122009  * -10.59029787  *
   119       H         -8.34898262  * -12.34628955  * -11.69368323  *
   120       H         -8.64877091  * -12.44251725  *  -9.95515504  *
   121       H         -7.25285331  * -13.26776689  * -10.65825088  *

                             CARTESIAN COORDINATES

   1    O        3.242498735    -1.930955181     2.158661772
   2    O        3.216728832    -1.192425926     0.037210314
   3    C        5.866670602     4.832685133     6.835492338
   4    C        6.794053308     3.649264364     6.423501823
   5    C        6.009070166     2.364579118     6.156997271
   6    C        5.041565960     2.635940317     4.980466904
   7    C        6.933716749     5.923391049     7.158376385
   8    C        4.975805629     5.124858904     5.620744006
   9    C        4.178769830     1.374123589     4.666998104
  10    C        7.859996332     3.626850125     7.525921041
  11    C        4.163327078     3.875178990     5.241171743
  12    C        8.063454891     5.120208434     7.872210972
  13    C        6.979243131     1.232974170     5.776074912
  14    C        6.475140850     7.129026849     8.002069641
  15    C        5.015347029     4.524262973     8.071338208
  16    C        5.060796653     0.147914590     4.592517455
  17    C        3.483064408     1.626700179     3.303815695
  18    C        6.294647891     0.092442630     5.107070668
  19    C        3.128140690     1.116832021     5.760979118
  20    C        4.467934877    -1.075075966     3.956109570
  21    C        2.822789032     0.378528798     2.718744024
  22    C        7.661863949     8.103501256     8.178810168
  23    C        3.880118436    -0.715763371     2.588360331
  24    C        5.306845158     7.864834976     7.334690109
  25    C        7.368325031     9.186170882     9.225511784
  26    C        8.622724756    10.029412461     9.491310730
  27    C        8.302003669    11.289102490    10.317867490
  28    C        2.955997729    -2.051117237     0.839555622
  29    C        2.300568622    -3.376333251     0.590457094
  30    C        9.536315395    12.200612785    10.365542601
  31    C        7.871196840    10.923550165    11.742953159
  32    C        1.711580765    -3.411781027    -0.822603109
  33    C        1.001892302    -4.745287030    -1.080023116
  34    C        0.404584324    -4.772416390    -2.493180791
  35    C       -0.353315851    -6.083580588    -2.737510984
  36    C       -0.982881073    -6.094604173    -4.136531638
  37    C       -1.786846201    -7.381620500    -4.362088715
  38    C       -2.448821651    -7.372816572    -5.746257179
  39    C       -3.278733970    -8.645459190    -5.959038074
  40    C       -3.958469378    -8.628433802    -7.334114480
  41    C       -4.799319460    -9.895153446    -7.540970831
  42    C       -5.483384137    -9.871032658    -8.913976445
  43    C       -6.331097428   -11.131799326    -9.124960738
  44    C       -7.013297729   -11.104589200   -10.499537304
  45    C       -7.861628537   -12.358407005   -10.712626361
  46    H        7.304814681     3.933247530     5.466522243
  47    H        5.433152450     2.063480752     7.058974701
  48    H        5.669847245     2.843710858     4.078239545
  49    H        7.325661928     6.313946315     6.191382140
  50    H        5.592385884     5.451650967     4.764164043
  51    H        4.284681671     5.960088727     5.830752461
  52    H        7.518520330     3.055141652     8.402932202
  53    H        8.793130050     3.153958035     7.189453332
  54    H        3.435350353     3.662660402     6.046352128
  55    H        3.562341224     4.099630563     4.339922452
  56    H        9.051543474     5.469386993     7.538389902
  57    H        8.026613158     5.271222545     8.961922796
  58    H        7.773003798     1.621497367     5.101274245
  59    H        7.510007253     0.884522856     6.685368882
  60    H        6.150475676     6.770646506     9.006631713
  61    H        4.330105578     5.347226616     8.297847805
  62    H        5.641223035     4.359353760     8.955203043
  63    H        4.408142275     3.623511956     7.932104914
  64    H        4.227183975     2.016498817     2.580520332
  65    H        2.724218614     2.423109297     3.418253897
  66    H        6.892713838    -0.816137757     5.050839396
  67    H        3.602087317     1.015892132     6.743861600
  68    H        2.572496561     0.192305778     5.568800020
  69    H        2.395015882     1.926780348     5.820573302
  70    H        5.211945649    -1.888093701     3.843292532
  71    H        3.677065751    -1.500706695     4.609976619
  72    H        1.984895489     0.035650072     3.352500180
  73    H        2.382216108     0.603300512     1.727212320
  74    H        8.567465363     7.545355505     8.480138654
  75    H        7.905633311     8.572638012     7.208074626
  76    H        4.670495298    -0.448303063     1.853322598
  77    H        5.069559849     8.796846976     7.859522873
  78    H        4.395484081     7.257169291     7.338647862
  79    H        5.537066729     8.121276615     6.295533915
  80    H        6.542799026     9.836233142     8.881248098
  81    H        7.017603533     8.721274901    10.165150023
  82    H        9.080056207    10.329575041     8.529329784
  83    H        9.385011132     9.421216797    10.010915012
  84    H        7.468981386    11.842118526     9.820720248
  85    H        1.515445835    -3.564869759     1.353037994
  86    H        3.045767778    -4.188632147     0.728659759
  87    H        9.846921638    12.506305896     9.361164733
  88    H        9.334093760    13.111461036    10.938785408
  89    H       10.386847514    11.697157786    10.837019207
  90    H        7.653969197    11.820121448    12.333062863
  91    H        8.653676585    10.363815940    12.265890199
  92    H        6.967592534    10.304753957    11.741699889
  93    H        1.007664630    -2.567328410    -0.962405385
  94    H        2.512223207    -3.247304494    -1.571927138
  95    H        0.203275225    -4.902305282    -0.330683773
  96    H        1.709065202    -5.586204015    -0.953412945
  97    H        1.205107769    -4.651520796    -3.246867985
  98    H       -0.275984733    -3.911532013    -2.633801232
  99    H       -1.138396501    -6.215505113    -1.969808498
 100    H        0.330403488    -6.944896464    -2.623261379
 101    H       -0.195688699    -5.999672692    -4.907395828
 102    H       -1.639376723    -5.213237360    -4.262431206
 103    H       -1.127293704    -8.263636035    -4.263264468
 104    H       -2.557645091    -7.488797001    -3.576098117
 105    H       -3.092894922    -6.479903874    -5.851958778
 106    H       -1.678376632    -7.286598516    -6.534778363
 107    H       -2.633255458    -9.538476178    -5.866908398
 108    H       -4.040519185    -8.737783538    -5.162731123
 109    H       -3.197353989    -8.544880868    -8.131980872
 110    H       -4.597994000    -7.731163061    -7.429176896
 111    H       -4.160451944   -10.793293299    -7.451329657
 112    H       -5.558378941    -9.981172260    -6.741307518
 113    H       -6.118537827    -8.970072091    -9.003871572
 114    H       -4.723602640    -9.788834113    -9.713368116
 115    H       -7.092730219   -11.215582555    -8.327819488
 116    H       -5.699077798   -12.034594308    -9.035736530
 117    H       -6.252257992   -11.023244453   -11.298333871
 118    H       -7.645393540   -10.201220091   -10.590297866
 119    H       -8.348982617   -12.346289551   -11.693683225
 120    H       -8.648770911   -12.442517249    -9.955155037
 121    H       -7.252853309   -13.267766894   -10.658250878


           Empirical Formula: C43 H76 O2  =   121 atoms



      MOLECULAR POINT GROUP   :   C1  


                  EIGENVALUES  
 -31.77099 -31.28249 -30.78966 -29.90355 -29.76353 -29.59754 -29.42072 -28.92825
 -28.80367 -28.13740 -28.11110 -27.93528 -27.09647 -26.78451 -26.24765 -25.81096
 -25.62252 -24.86781 -24.66561 -24.35518 -23.86724 -23.58791 -23.45056 -23.21688
 -23.04518 -22.54438 -21.77001 -21.37752 -20.94749 -20.68530 -20.56559 -20.41997
 -20.23557 -20.13448 -19.89604 -19.59012 -19.49989 -19.35236 -19.18132 -19.13107
 -18.89962 -18.69162 -18.36199 -17.95478 -17.19364 -17.16204 -16.90949 -16.59823
 -16.48874 -16.39058 -16.22798 -16.08383 -15.98885 -15.95207 -15.84188 -15.45806
 -15.30567 -15.25552 -15.14690 -15.01572 -14.98317 -14.84722 -14.83988 -14.67225
 -14.55220 -14.53008 -14.43299 -14.33781 -14.27659 -14.12029 -14.03409 -13.96344
 -13.83857 -13.70694 -13.67431 -13.63678 -13.52964 -13.47005 -13.39586 -13.33761
 -13.19694 -13.16777 -13.10850 -12.99138 -12.92722 -12.86213 -12.82811 -12.76481
 -12.69236 -12.63214 -12.60256 -12.53394 -12.48531 -12.31661 -12.26226 -12.17446
 -12.15554 -12.13566 -12.03611 -11.92203 -11.89185 -11.83862 -11.82023 -11.73177
 -11.67315 -11.63818 -11.61046 -11.57539 -11.50999 -11.44943 -11.43718 -11.40869
 -11.29618 -11.25254 -11.20825 -11.16273 -11.11346 -11.08049 -11.03103 -10.99510
 -10.88553 -10.85845 -10.79569 -10.73588 -10.67794 -10.61262 -10.55794 -10.24008
 -10.00347  -9.24828   1.23843   1.27206   1.77440   3.26541   3.46671   3.54165
   3.67764   3.76650   3.84130   3.87544   3.92806   3.98307   4.01276   4.03844
   4.07146   4.09929   4.14324   4.19435   4.21640   4.25188   4.26676   4.34597
   4.37976   4.39167   4.46489   4.48130   4.56818   4.59358   4.61355   4.63748
   4.65479   4.70225   4.72585   4.78140   4.85003   4.87260   4.87574   4.91978
   4.92578   4.95321   5.01687   5.06108   5.08330   5.08404   5.08896   5.23335
   5.27054   5.33641   5.34064   5.36872   5.40230   5.41746   5.43565   5.52419
   5.59948   5.63239   5.63948   5.70179   5.72622   5.75958   5.78782   5.85351
   5.87019   5.88211   5.91088   5.91389   5.94944   5.95549   5.95650   5.97249
   5.98391   5.99391   6.01100   6.02414   6.03489   6.05652   6.07166   6.10630
   6.11767   6.13441   6.14758   6.16999   6.19317   6.22827   6.25573   6.27989
   6.28386   6.32288   6.33166   6.40026   6.42086   6.46676   6.49032   6.52275
   6.53116   6.54194   6.55516   6.58606   6.63039   6.63395   6.64759   6.65463
   6.66822   6.68090   6.68249   6.69066   6.71275   6.71353   6.72575   6.74508
   6.75164   6.76094   6.76686   6.79586   6.80504   6.80784   6.83625   6.84925
   6.90314   6.92818   7.07225   7.10636   7.20403   7.23819   7.25888   7.43023


              NET ATOMIC CHARGES AND DIPOLE CONTRIBUTIONS

  ATOM NO.   TYPE          CHARGE      No. of ELECS.   s-Pop       p-Pop       
    1          O          -0.471288        6.4713     1.86529     4.60600
    2          O          -0.516844        6.5168     1.87612     4.64072
    3          C           0.075337        3.9247     1.06762     2.85704
    4          C          -0.145003        4.1450     1.07522     3.06979
    5          C          -0.117695        4.1177     1.06633     3.05136
    6          C          -0.130434        4.1304     1.07517     3.05527
    7          C          -0.146975        4.1470     1.08038     3.06659
    8          C          -0.298794        4.2988     1.06487     3.23392
    9          C           0.065676        3.9343     1.06139     2.87293
   10          C          -0.280945        4.2809     1.06313     3.21782
   11          C          -0.278977        4.2790     1.06243     3.21655
   12          C          -0.279353        4.2794     1.06836     3.21099
   13          C          -0.284791        4.2848     1.05558     3.22921
   14          C          -0.089625        4.0896     1.06382     3.02580
   15          C          -0.456797        4.4568     1.05630     3.40050
   16          C          -0.019519        4.0195     1.08187     2.93765
   17          C          -0.282690        4.2827     1.06544     3.21725
   18          C          -0.194125        4.1941     1.08594     3.10819
   19          C          -0.453477        4.4535     1.05781     3.39566
   20          C          -0.322716        4.3227     1.06133     3.26139
   21          C          -0.322933        4.3229     1.06508     3.25786
   22          C          -0.289696        4.2897     1.06494     3.22475
   23          C           0.163426        3.8366     1.09545     2.74112
   24          C          -0.452988        4.4530     1.05602     3.39697
   25          C          -0.267974        4.2680     1.05958     3.20839
   26          C          -0.289740        4.2897     1.06422     3.22552
   27          C          -0.060176        4.0602     1.05702     3.00315
   28          C           0.618359        3.3816     1.12027     2.26137
   29          C          -0.351205        4.3512     1.06766     3.28355
   30          C          -0.457642        4.4576     1.05666     3.40098
   31          C          -0.453427        4.4534     1.05580     3.39763
   32          C          -0.254852        4.2549     1.05784     3.19701
   33          C          -0.271345        4.2713     1.05977     3.21157
   34          C          -0.269954        4.2700     1.05982     3.21013
   35          C          -0.275742        4.2757     1.06004     3.21570
   36          C          -0.272721        4.2727     1.05996     3.21276
   37          C          -0.273329        4.2733     1.06003     3.21330
   38          C          -0.272336        4.2723     1.05997     3.21237
   39          C          -0.272880        4.2729     1.05990     3.21298
   40          C          -0.271555        4.2716     1.05992     3.21164
   41          C          -0.272203        4.2722     1.05996     3.21224
   42          C          -0.274594        4.2746     1.06003     3.21457
   43          C          -0.272257        4.2723     1.06007     3.21219
   44          C          -0.251000        4.2510     1.05545     3.19555
   45          C          -0.439875        4.4399     1.05207     3.38780
   46          H           0.137174        0.8628     0.86283
   47          H           0.141784        0.8582     0.85822
   48          H           0.140413        0.8596     0.85959
   49          H           0.132764        0.8672     0.86724
   50          H           0.136909        0.8631     0.86309
   51          H           0.138956        0.8610     0.86104
   52          H           0.137254        0.8627     0.86275
   53          H           0.131399        0.8686     0.86860
   54          H           0.141954        0.8580     0.85805
   55          H           0.134014        0.8660     0.86599
   56          H           0.130586        0.8694     0.86941
   57          H           0.136478        0.8635     0.86352
   58          H           0.150330        0.8497     0.84967
   59          H           0.144009        0.8560     0.85599
   60          H           0.135218        0.8648     0.86478
   61          H           0.142803        0.8572     0.85720
   62          H           0.146978        0.8530     0.85302
   63          H           0.146273        0.8537     0.85373
   64          H           0.145151        0.8548     0.85485
   65          H           0.142507        0.8575     0.85749
   66          H           0.143302        0.8567     0.85670
   67          H           0.148024        0.8520     0.85198
   68          H           0.147375        0.8526     0.85263
   69          H           0.144636        0.8554     0.85536
   70          H           0.154314        0.8457     0.84569
   71          H           0.164665        0.8353     0.83534
   72          H           0.151008        0.8490     0.84899
   73          H           0.158191        0.8418     0.84181
   74          H           0.137711        0.8623     0.86229
   75          H           0.137914        0.8621     0.86209
   76          H           0.142586        0.8574     0.85741
   77          H           0.143758        0.8562     0.85624
   78          H           0.142853        0.8571     0.85715
   79          H           0.143401        0.8566     0.85660
   80          H           0.135931        0.8641     0.86407
   81          H           0.136159        0.8638     0.86384
   82          H           0.136355        0.8636     0.86365
   83          H           0.137966        0.8620     0.86203
   84          H           0.127820        0.8722     0.87218
   85          H           0.176672        0.8233     0.82333
   86          H           0.176111        0.8239     0.82389
   87          H           0.141096        0.8589     0.85890
   88          H           0.142242        0.8578     0.85776
   89          H           0.144077        0.8559     0.85592
   90          H           0.140354        0.8596     0.85965
   91          H           0.143936        0.8561     0.85606
   92          H           0.142607        0.8574     0.85739
   93          H           0.150542        0.8495     0.84946
   94          H           0.154953        0.8450     0.84505
   95          H           0.136773        0.8632     0.86323
   96          H           0.136808        0.8632     0.86319
   97          H           0.138862        0.8611     0.86114
   98          H           0.138770        0.8612     0.86123
   99          H           0.135879        0.8641     0.86412
  100          H           0.135744        0.8643     0.86426
  101          H           0.137156        0.8628     0.86284
  102          H           0.137309        0.8627     0.86269
  103          H           0.136159        0.8638     0.86384
  104          H           0.136256        0.8637     0.86374
  105          H           0.136696        0.8633     0.86330
  106          H           0.136622        0.8634     0.86338
  107          H           0.136303        0.8637     0.86370
  108          H           0.136338        0.8637     0.86366
  109          H           0.136426        0.8636     0.86357
  110          H           0.136436        0.8636     0.86356
  111          H           0.136347        0.8637     0.86365
  112          H           0.136344        0.8637     0.86366
  113          H           0.136329        0.8637     0.86367
  114          H           0.136345        0.8637     0.86365
  115          H           0.136371        0.8636     0.86363
  116          H           0.136384        0.8636     0.86362
  117          H           0.133544        0.8665     0.86646
  118          H           0.133518        0.8665     0.86648
  119          H           0.139964        0.8600     0.86004
  120          H           0.142208        0.8578     0.85779
  121          H           0.142268        0.8577     0.85773
 DIPOLE           X         Y         Z       TOTAL
 POINT-CHG.    -0.657    -0.586     1.233     1.515
 HYBRID        -0.012    -0.120     0.325     0.347
 SUM           -0.669    -0.706     1.558     1.836


          ATOMIC ORBITAL ELECTRON POPULATIONS

     Atom    s        px        py        pz   
    1  O   1.86529   1.74569   1.48383   1.37647
    2  O   1.87612   1.55856   1.50522   1.57694
    3  C   1.06762   0.94793   0.96344   0.94567
    4  C   1.07522   1.00489   1.00082   1.06408
    5  C   1.06633   1.01008   0.97772   1.06356
    6  C   1.07517   1.01675   0.97215   1.06637
    7  C   1.08038   1.00588   0.98897   1.07174
    8  C   1.06487   1.09659   1.05724   1.08008
    9  C   1.06139   0.95849   0.95956   0.95489
   10  C   1.06313   1.09261   1.02941   1.09580
   11  C   1.06243   1.06789   1.00051   1.14814
   12  C   1.06836   1.08232   1.00269   1.12599
   13  C   1.05558   1.07333   1.02996   1.12592
   14  C   1.06382   0.97535   0.97717   1.07328
   15  C   1.05630   1.13507   1.16738   1.09805
   16  C   1.08187   0.98103   0.96835   0.98827
   17  C   1.06544   1.11780   1.05041   1.04905
   18  C   1.08594   1.02064   1.05460   1.03295
   19  C   1.05781   1.11148   1.17157   1.11261
   20  C   1.06133   1.14584   1.06570   1.04984
   21  C   1.06508   1.07653   1.02438   1.15695
   22  C   1.06494   1.07433   1.05241   1.09801
   23  C   1.09545   0.96817   0.79707   0.97588
   24  C   1.05602   1.10094   1.14314   1.15289
   25  C   1.05958   1.05718   1.05807   1.09314
   26  C   1.06422   1.06008   1.04565   1.11978
   27  C   1.05702   1.02645   0.99300   0.98370
   28  C   1.12027   0.69492   0.82538   0.74108
   29  C   1.06766   1.14491   1.05376   1.08488
   30  C   1.05666   1.10034   1.12983   1.17081
   31  C   1.05580   1.16351   1.16473   1.06939
   32  C   1.05784   1.12655   1.06295   1.00751
   33  C   1.05977   1.11448   1.05000   1.04710
   34  C   1.05982   1.11245   1.06015   1.03753
   35  C   1.06004   1.10945   1.05964   1.04662
   36  C   1.05996   1.10545   1.06412   1.04319
   37  C   1.06003   1.10260   1.06239   1.04830
   38  C   1.05997   1.10036   1.06564   1.04637
   39  C   1.05990   1.09891   1.06456   1.04951
   40  C   1.05992   1.09770   1.06568   1.04826
   41  C   1.05996   1.09742   1.06574   1.04908
   42  C   1.06003   1.09739   1.06753   1.04964
   43  C   1.06007   1.09696   1.06549   1.04974
   44  C   1.05545   1.09134   1.05605   1.04817
   45  C   1.05207   1.13257   1.08782   1.16741
   46  H   0.86283
   47  H   0.85822
   48  H   0.85959
   49  H   0.86724
   50  H   0.86309
   51  H   0.86104
   52  H   0.86275
   53  H   0.86860
   54  H   0.85805
   55  H   0.86599
   56  H   0.86941
   57  H   0.86352
   58  H   0.84967
   59  H   0.85599
   60  H   0.86478
   61  H   0.85720
   62  H   0.85302
   63  H   0.85373
   64  H   0.85485
   65  H   0.85749
   66  H   0.85670
   67  H   0.85198
   68  H   0.85263
   69  H   0.85536
   70  H   0.84569
   71  H   0.83534
   72  H   0.84899
   73  H   0.84181
   74  H   0.86229
   75  H   0.86209
   76  H   0.85741
   77  H   0.85624
   78  H   0.85715
   79  H   0.85660
   80  H   0.86407
   81  H   0.86384
   82  H   0.86365
   83  H   0.86203
   84  H   0.87218
   85  H   0.82333
   86  H   0.82389
   87  H   0.85890
   88  H   0.85776
   89  H   0.85592
   90  H   0.85965
   91  H   0.85606
   92  H   0.85739
   93  H   0.84946
   94  H   0.84505
   95  H   0.86323
   96  H   0.86319
   97  H   0.86114
   98  H   0.86123
   99  H   0.86412
  100  H   0.86426
  101  H   0.86284
  102  H   0.86269
  103  H   0.86384
  104  H   0.86374
  105  H   0.86330
  106  H   0.86338
  107  H   0.86370
  108  H   0.86366
  109  H   0.86357
  110  H   0.86356
  111  H   0.86365
  112  H   0.86366
  113  H   0.86367
  114  H   0.86365
  115  H   0.86363
  116  H   0.86362
  117  H   0.86646
  118  H   0.86648
  119  H   0.86004
  120  H   0.85779
  121  H   0.85773

 **********************
 *                    *
 * JOB ENDED NORMALLY *
 *                    *
 **********************



 TOTAL JOB TIME:             5.98 SECONDS

 == MOPAC DONE ==
