
     Program PWSCF v.7.4.1 starts on 25Aug2025 at 11:38:46 

     This program is part of the open-source Quantum ESPRESSO suite
     for quantum simulation of materials; please cite
         "P. Giannozzi et al., J. Phys.:Condens. Matter 21 395502 (2009);
         "P. Giannozzi et al., J. Phys.:Condens. Matter 29 465901 (2017);
         "P. Giannozzi et al., J. Chem. Phys. 152 154105 (2020);
          URL http://www.quantum-espresso.org", 
     in publications or presentations arising from this work. More details at
     http://www.quantum-espresso.org/quote

     Parallel version (MPI), running on     4 processors

     MPI processes distributed on     1 nodes
     15245 MiB available memory on the printing compute node when the environment starts

     Reading input from espresso.pwi
Warning: card &CELL ignored
Warning: card / ignored
Warning: card &FCP ignored
Warning: card / ignored
Warning: card &RISM ignored
Warning: card / ignored

     Current dimensions of program PWSCF are:
     Max number of different atomic species (ntypx) = 10
     Max number of k-points (npk) =  40000
     Max angular momentum in pseudopotentials (lmaxx) =  4
     Message from routine setup:
     using ibrav=0 with symmetry is DISCOURAGED, use correct ibrav instead

     R & G space division:  proc/nbgrp/npool/nimage =       4
     Subspace diagonalization in iterative solution of the eigenvalue problem:
     a serial algorithm will be used


     Parallelization info
     --------------------
     sticks:   dense  smooth     PW     G-vecs:    dense   smooth      PW
     Min         148     148     42                17880    17880    2857
     Max         150     150     43                17885    17885    2866
     Sum         595     595    169                71527    71527   11451

     Using Slab Decomposition



     bravais-lattice index     =            0
     lattice parameter (alat)  =       4.6412  a.u.
     unit-cell volume          =     528.7803 (a.u.)^3
     number of atoms/cell      =            2
     number of atomic types    =            1
     number of electrons       =         8.00
     number of Kohn-Sham states=            8
     kinetic-energy cutoff     =     100.0000  Ry
     charge density cutoff     =     400.0000  Ry
     scf convergence threshold =      1.0E-10
     mixing beta               =       0.7000
     number of iterations used =            8  plain     mixing
     Exchange-correlation= PBE
                           (   1   4   3   4   0   0   0)

     celldm(1)=   4.641168  celldm(2)=   0.000000  celldm(3)=   0.000000
     celldm(4)=   0.000000  celldm(5)=   0.000000  celldm(6)=   0.000000

     crystal axes: (cart. coord. in units of alat)
               a(1) = (   1.000000   0.000000   0.000000 )  
               a(2) = (  -0.500000   0.866025   0.000000 )  
               a(3) = (   0.000000   0.000000   6.107492 )  

     reciprocal axes: (cart. coord. in units 2 pi/alat)
               b(1) = (  1.000000  0.577350 -0.000000 )  
               b(2) = (  0.000000  1.154701  0.000000 )  
               b(3) = (  0.000000 -0.000000  0.163733 )  


     PseudoPot. # 1 for C  read from file:
     ./C.upf
     MD5 check sum: 34a24e64c0a39f27c6c36b90a16ac686
     Pseudo is Norm-conserving + core correction, Zval =  4.0
     Generated using ONCVPSP code by D. R. Hamann
     Using radial grid of 1248 points,  4 beta functions with: 
                l(1) =   0
                l(2) =   0
                l(3) =   1
                l(4) =   1

     atomic species   valence    mass     pseudopotential
     C                 4.00    12.01100     C ( 1.00)

     24 Sym. Ops., with inversion, found (12 have fractional translation)



   Cartesian axes

     site n.     atom                  positions (alat units)
         1        C      tau(   1) = (   0.0000000   0.0000000   3.0537458  )
         2        C      tau(   2) = (   0.5000000   0.2886751   3.0537458  )

     number of k points=    75  Gaussian smearing, width (Ry)=  0.0100
                       cart. coord. in units 2pi/alat
        k(    1) = (   0.0000000   0.0000000   0.0000000), wk =   0.0027435
        k(    2) = (   0.0000000   0.0427667   0.0000000), wk =   0.0164609
        k(    3) = (   0.0000000   0.0855334   0.0000000), wk =   0.0164609
        k(    4) = (   0.0000000   0.1283001   0.0000000), wk =   0.0164609
        k(    5) = (   0.0000000   0.1710667   0.0000000), wk =   0.0164609
        k(    6) = (   0.0000000   0.2138334   0.0000000), wk =   0.0164609
        k(    7) = (   0.0000000   0.2566001   0.0000000), wk =   0.0164609
        k(    8) = (   0.0000000   0.2993668   0.0000000), wk =   0.0164609
        k(    9) = (   0.0000000   0.3421335   0.0000000), wk =   0.0164609
        k(   10) = (   0.0000000   0.3849002   0.0000000), wk =   0.0164609
        k(   11) = (   0.0000000   0.4276669   0.0000000), wk =   0.0164609
        k(   12) = (   0.0000000   0.4704336   0.0000000), wk =   0.0164609
        k(   13) = (   0.0000000   0.5132002   0.0000000), wk =   0.0164609
        k(   14) = (   0.0000000   0.5559669   0.0000000), wk =   0.0164609
        k(   15) = (   0.0370370   0.0641500   0.0000000), wk =   0.0164609
        k(   16) = (   0.0370370   0.1069167   0.0000000), wk =   0.0329218
        k(   17) = (   0.0370370   0.1496834   0.0000000), wk =   0.0329218
        k(   18) = (   0.0370370   0.1924501   0.0000000), wk =   0.0329218
        k(   19) = (   0.0370370   0.2352168   0.0000000), wk =   0.0329218
        k(   20) = (   0.0370370   0.2779835   0.0000000), wk =   0.0329218
        k(   21) = (   0.0370370   0.3207501   0.0000000), wk =   0.0329218
        k(   22) = (   0.0370370   0.3635168   0.0000000), wk =   0.0329218
        k(   23) = (   0.0370370   0.4062835   0.0000000), wk =   0.0329218
        k(   24) = (   0.0370370   0.4490502   0.0000000), wk =   0.0329218
        k(   25) = (   0.0370370   0.4918169   0.0000000), wk =   0.0329218
        k(   26) = (   0.0370370   0.5345836   0.0000000), wk =   0.0329218
        k(   27) = (   0.0370370   0.5773503   0.0000000), wk =   0.0164609
        k(   28) = (   0.0740741   0.1283001   0.0000000), wk =   0.0164609
        k(   29) = (   0.0740741   0.1710667   0.0000000), wk =   0.0329218
        k(   30) = (   0.0740741   0.2138334   0.0000000), wk =   0.0329218
        k(   31) = (   0.0740741   0.2566001   0.0000000), wk =   0.0329218
        k(   32) = (   0.0740741   0.2993668   0.0000000), wk =   0.0329218
        k(   33) = (   0.0740741   0.3421335   0.0000000), wk =   0.0329218
        k(   34) = (   0.0740741   0.3849002   0.0000000), wk =   0.0329218
        k(   35) = (   0.0740741   0.4276669   0.0000000), wk =   0.0329218
        k(   36) = (   0.0740741   0.4704336   0.0000000), wk =   0.0329218
        k(   37) = (   0.0740741   0.5132002   0.0000000), wk =   0.0329218
        k(   38) = (   0.0740741   0.5559669   0.0000000), wk =   0.0329218
        k(   39) = (   0.1111111   0.1924501   0.0000000), wk =   0.0164609
        k(   40) = (   0.1111111   0.2352168   0.0000000), wk =   0.0329218
        k(   41) = (   0.1111111   0.2779835   0.0000000), wk =   0.0329218
        k(   42) = (   0.1111111   0.3207501   0.0000000), wk =   0.0329218
        k(   43) = (   0.1111111   0.3635168   0.0000000), wk =   0.0329218
        k(   44) = (   0.1111111   0.4062835   0.0000000), wk =   0.0329218
        k(   45) = (   0.1111111   0.4490502   0.0000000), wk =   0.0329218
        k(   46) = (   0.1111111   0.4918169   0.0000000), wk =   0.0329218
        k(   47) = (   0.1111111   0.5345836   0.0000000), wk =   0.0329218
        k(   48) = (   0.1111111   0.5773503   0.0000000), wk =   0.0164609
        k(   49) = (   0.1481481   0.2566001   0.0000000), wk =   0.0164609
        k(   50) = (   0.1481481   0.2993668   0.0000000), wk =   0.0329218
        k(   51) = (   0.1481481   0.3421335   0.0000000), wk =   0.0329218
        k(   52) = (   0.1481481   0.3849002   0.0000000), wk =   0.0329218
        k(   53) = (   0.1481481   0.4276669   0.0000000), wk =   0.0329218
        k(   54) = (   0.1481481   0.4704336   0.0000000), wk =   0.0329218
        k(   55) = (   0.1481481   0.5132002   0.0000000), wk =   0.0329218
        k(   56) = (   0.1481481   0.5559669   0.0000000), wk =   0.0329218
        k(   57) = (   0.1851852   0.3207501   0.0000000), wk =   0.0164609
        k(   58) = (   0.1851852   0.3635168   0.0000000), wk =   0.0329218
        k(   59) = (   0.1851852   0.4062835   0.0000000), wk =   0.0329218
        k(   60) = (   0.1851852   0.4490502   0.0000000), wk =   0.0329218
        k(   61) = (   0.1851852   0.4918169   0.0000000), wk =   0.0329218
        k(   62) = (   0.1851852   0.5345836   0.0000000), wk =   0.0329218
        k(   63) = (   0.1851852   0.5773503   0.0000000), wk =   0.0164609
        k(   64) = (   0.2222222   0.3849002   0.0000000), wk =   0.0164609
        k(   65) = (   0.2222222   0.4276669   0.0000000), wk =   0.0329218
        k(   66) = (   0.2222222   0.4704336   0.0000000), wk =   0.0329218
        k(   67) = (   0.2222222   0.5132002   0.0000000), wk =   0.0329218
        k(   68) = (   0.2222222   0.5559669   0.0000000), wk =   0.0329218
        k(   69) = (   0.2592593   0.4490502   0.0000000), wk =   0.0164609
        k(   70) = (   0.2592593   0.4918169   0.0000000), wk =   0.0329218
        k(   71) = (   0.2592593   0.5345836   0.0000000), wk =   0.0329218
        k(   72) = (   0.2592593   0.5773503   0.0000000), wk =   0.0164609
        k(   73) = (   0.2962963   0.5132002   0.0000000), wk =   0.0164609
        k(   74) = (   0.2962963   0.5559669   0.0000000), wk =   0.0329218
        k(   75) = (   0.3333333   0.5773503   0.0000000), wk =   0.0054870

     Dense  grid:    71527 G-vectors     FFT dimensions: (  30,  30, 192)

     Estimated max dynamical RAM per process >       8.42 MB

     Estimated total dynamical RAM >      33.66 MB
 ----2D----2D----2D----2D----2D----2D----2D----2D----2D----2D----2D----2D
  The code is running with the 2D cutoff
  Please refer to:
  Sohier, T., Calandra, M., & Mauri, F. (2017), 
  Density functional perturbation theory for gated two-dimensional heterostructures:
  Theoretical developments and application to flexural phonons in graphene.
  Physical Review B, 96(7), 75448. https://doi.org/10.1103/PhysRevB.96.075448
 ----2D----2D----2D----2D----2D----2D----2D----2D----2D----2D----2D----2D

     Initial potential from superposition of free atoms

     starting charge       7.9999, renormalised to       8.0000

     negative rho (up, down):  1.316E-06 0.000E+00
     Starting wfcs are    8 randomized atomic wfcs

     total cpu time spent up to now is        0.8 secs

     Self-consistent Calculation

     iteration #  1     ecut=   100.00 Ry     beta= 0.70
     Davidson diagonalization with overlap
     ethr =  1.00E-02,  avg # of iterations =  6.2

     total cpu time spent up to now is        3.5 secs

     total energy              =     -24.06840075 Ry
     estimated scf accuracy    <       0.19660523 Ry

     iteration #  2     ecut=   100.00 Ry     beta= 0.70
     Davidson diagonalization with overlap
     ethr =  2.46E-03,  avg # of iterations =  4.0

     total cpu time spent up to now is        5.5 secs

     total energy              =     -24.09510140 Ry
     estimated scf accuracy    <       0.00194641 Ry

     iteration #  3     ecut=   100.00 Ry     beta= 0.70
     Davidson diagonalization with overlap
     c_bands:  1 eigenvalues not converged
     c_bands:  1 eigenvalues not converged
     c_bands:  1 eigenvalues not converged
     ethr =  2.43E-05,  avg # of iterations = 10.7

     total cpu time spent up to now is        8.8 secs

     total energy              =     -24.09562727 Ry
     estimated scf accuracy    <       0.00015128 Ry

     iteration #  4     ecut=   100.00 Ry     beta= 0.70
     Davidson diagonalization with overlap
     c_bands:  1 eigenvalues not converged
     ethr =  1.89E-06,  avg # of iterations =  5.2

     total cpu time spent up to now is       10.9 secs

     total energy              =     -24.09564490 Ry
     estimated scf accuracy    <       0.00000337 Ry

     iteration #  5     ecut=   100.00 Ry     beta= 0.70
     Davidson diagonalization with overlap
     ethr =  4.21E-08,  avg # of iterations =  3.1

     total cpu time spent up to now is       12.8 secs

     total energy              =     -24.09564660 Ry
     estimated scf accuracy    <       0.00000007 Ry

     iteration #  6     ecut=   100.00 Ry     beta= 0.70
     Davidson diagonalization with overlap
     ethr =  8.49E-10,  avg # of iterations =  3.3

     negative rho (up, down):  1.122E-08 0.000E+00

     total cpu time spent up to now is       14.8 secs

     total energy              =     -24.09564666 Ry
     estimated scf accuracy    <          1.2E-09 Ry

     iteration #  7     ecut=   100.00 Ry     beta= 0.70
     Davidson diagonalization with overlap
     ethr =  1.54E-11,  avg # of iterations =  3.2

     total cpu time spent up to now is       16.7 secs

     End of self-consistent calculation

          k = 0.0000 0.0000 0.0000 (  9013 PWs)   bands (ev):

   -23.8439 -11.9167  -7.2603  -7.2603  -0.9513  -0.0456   1.7529   2.6629

          k = 0.0000 0.0428 0.0000 (  8989 PWs)   bands (ev):

   -23.8113 -11.8775  -7.3951  -7.3322  -0.9071  -0.0009   1.7974   2.7073

          k = 0.0000 0.0855 0.0000 (  8981 PWs)   bands (ev):

   -23.7136 -11.7600  -7.7831  -7.5361  -0.7743   0.1332   1.9311   2.8403

          k = 0.0000 0.1283 0.0000 (  8971 PWs)   bands (ev):

   -23.5509 -11.5649  -8.3823  -7.8415  -0.5529   0.3565   2.1538   3.0615

          k = 0.0000 0.1711 0.0000 (  8959 PWs)   bands (ev):

   -23.3236 -11.2932  -9.1409  -8.2114  -0.2429   0.6687   2.4654   3.3700

          k = 0.0000 0.2138 0.0000 (  8957 PWs)   bands (ev):

   -23.0321 -10.9466 -10.0099  -8.6114   0.1554   1.0689   2.8649   3.7618

          k = 0.0000 0.2566 0.0000 (  8951 PWs)   bands (ev):

   -22.6773 -10.9486 -10.5277  -9.0135   0.6417   1.5544   3.3480   3.8512

          k = 0.0000 0.2994 0.0000 (  8933 PWs)   bands (ev):

   -22.2600 -11.9251 -10.0401  -9.3965   1.2155   2.1025   2.9024   3.8397

          k = 0.0000 0.3421 0.0000 (  8949 PWs)   bands (ev):

   -21.7815 -12.9151  -9.7452  -9.4897   1.7826   1.8754   2.8511   3.8178

          k = 0.0000 0.3849 0.0000 (  8931 PWs)   bands (ev):

   -21.2437 -13.8997 -10.0486  -8.8861   0.7594   2.6178   3.5834   3.6961

          k = 0.0000 0.4277 0.0000 (  8923 PWs)   bands (ev):

   -20.6494 -14.8639 -10.2988  -8.2462  -0.2502   3.3812   3.6499   4.4173

          k = 0.0000 0.4704 0.0000 (  8916 PWs)   bands (ev):

   -20.0043 -15.7932 -10.4906  -7.6026  -1.1850   3.4529   4.4023   5.3365

          k = 0.0000 0.5132 0.0000 (  8910 PWs)   bands (ev):

   -19.3236 -16.6663 -10.6203  -7.0237  -1.9641   3.3961   5.3926   6.3345

          k = 0.0000 0.5560 0.0000 (  8916 PWs)   bands (ev):

   -18.6904 -17.3967 -10.6857  -6.6475  -2.4423   3.3648   6.4631   7.3967

          k = 0.0370 0.0642 0.0000 (  8989 PWs)   bands (ev):

   -23.7461 -11.7991  -7.6505  -7.4761  -0.8185   0.0885   1.8865   2.7960

          k = 0.0370 0.1069 0.0000 (  8983 PWs)   bands (ev):

   -23.6159 -11.6428  -8.1300  -7.7450  -0.6414   0.2672   2.0648   2.9730

          k = 0.0370 0.1497 0.0000 (  8955 PWs)   bands (ev):

   -23.4209 -11.4094  -8.7935  -8.0983  -0.3757   0.5350   2.3321   3.2380

          k = 0.0370 0.1925 0.0000 (  8950 PWs)   bands (ev):

   -23.1616 -11.1002  -9.5941  -8.4968  -0.0215   0.8914   2.6882   3.5901

          k = 0.0370 0.2352 0.0000 (  8962 PWs)   bands (ev):

   -22.8384 -10.7173 -10.4879  -8.9083   0.4210   1.3348   3.1314   4.0026

          k = 0.0370 0.2780 0.0000 (  8952 PWs)   bands (ev):

   -22.4524 -11.4381 -10.2637  -9.3083   0.9512   1.8592   3.3426   3.6524

          k = 0.0370 0.3208 0.0000 (  8946 PWs)   bands (ev):

   -22.0045 -12.4162  -9.7441  -9.6794   1.5684   2.2024   2.6095   4.0018

          k = 0.0370 0.3635 0.0000 (  8933 PWs)   bands (ev):

   -21.4963 -13.4000 -10.0089  -9.1659   1.2535   2.2709   3.2305   3.9003

          k = 0.0370 0.4063 0.0000 (  8918 PWs)   bands (ev):

   -20.9300 -14.3721 -10.2880  -8.5415   0.2334   3.0509   3.7887   4.0185

          k = 0.0370 0.4491 0.0000 (  8917 PWs)   bands (ev):

   -20.3097 -15.3178 -10.5105  -7.8941  -0.7418   3.6158   3.9940   4.8949

          k = 0.0370 0.4918 0.0000 (  8921 PWs)   bands (ev):

   -19.6441 -16.2207 -10.6721  -7.2702  -1.6092   3.5695   4.9186   5.8522

          k = 0.0370 0.5346 0.0000 (  8902 PWs)   bands (ev):

   -18.9652 -17.0438 -10.7702  -6.7692  -2.2599   3.5244   5.9505   6.8810

          k = 0.0370 0.5774 0.0000 (  8908 PWs)   bands (ev):

   -18.5282 -17.5292 -10.8030  -6.5639  -2.5157   3.5085   6.9860   7.1368

          k = 0.0741 0.1283 0.0000 (  8971 PWs)   bands (ev):

   -23.4534 -11.4482  -8.6484  -8.0875  -0.4199   0.4905   2.2877   3.1940

          k = 0.0741 0.1711 0.0000 (  8948 PWs)   bands (ev):

   -23.2263 -11.1772  -9.3180  -8.5058  -0.1098   0.8025   2.5999   3.5026

          k = 0.0741 0.2138 0.0000 (  8959 PWs)   bands (ev):

   -22.9353 -10.8315 -10.1118  -8.9477   0.2886   1.2026   3.0007   3.8949

          k = 0.0741 0.2566 0.0000 (  8951 PWs)   bands (ev):

   -22.5809 -10.9942 -10.4136  -9.3804   0.7752   1.6885   3.4883   3.6819

          k = 0.0741 0.2994 0.0000 (  8951 PWs)   bands (ev):

   -22.1643 -11.9304  -9.9271  -9.7843   1.3492   2.2318   2.7552   4.0514

          k = 0.0741 0.3421 0.0000 (  8937 PWs)   bands (ev):

   -21.6866 -12.8918 -10.1467  -9.3780   1.6870   2.0098   2.9605   4.3618

          k = 0.0741 0.3849 0.0000 (  8930 PWs)   bands (ev):

   -21.1498 -13.8563 -10.4588  -8.7754   0.6824   2.7549   3.7012   4.2598

          k = 0.0741 0.4277 0.0000 (  8921 PWs)   bands (ev):

   -20.5570 -14.8060 -10.7145  -8.1359  -0.3055   3.5735   4.1621   4.5325

          k = 0.0741 0.4704 0.0000 (  8925 PWs)   bands (ev):

   -19.9137 -15.7248 -10.9096  -7.4913  -1.2246   4.0172   4.5422   5.4447

          k = 0.0741 0.5132 0.0000 (  8914 PWs)   bands (ev):

   -19.2356 -16.5902 -11.0411  -6.9092  -1.9958   3.9702   5.5203   6.4283

          k = 0.0741 0.5560 0.0000 (  8908 PWs)   bands (ev):

   -18.6058 -17.3147 -11.1073  -6.5285  -2.4729   3.9395   6.5850   7.7282

          k = 0.1111 0.1925 0.0000 (  8959 PWs)   bands (ev):

   -22.9676 -10.8696  -9.9476  -9.0009   0.2446   1.1585   2.9570   3.8545

          k = 0.1111 0.2352 0.0000 (  8954 PWs)   bands (ev):

   -22.6453 -10.6854 -10.4887  -9.5091   0.6872   1.6021   3.4029   3.8726

          k = 0.1111 0.2780 0.0000 (  8959 PWs)   bands (ev):

   -22.2603 -11.5180 -10.0375  -9.9817   1.2176   2.1278   2.9909   3.9359

          k = 0.1111 0.3208 0.0000 (  8945 PWs)   bands (ev):

   -21.8139 -12.4142 -10.4004  -9.5204   1.8352   2.0230   2.7715   4.5467

          k = 0.1111 0.3635 0.0000 (  8928 PWs)   bands (ev):

   -21.3076 -13.3422 -10.7597  -8.9446   1.0596   2.5389   3.4672   4.9450

          k = 0.1111 0.4063 0.0000 (  8930 PWs)   bands (ev):

   -20.7439 -14.2758 -11.0571  -8.3220   0.0887   3.3264   4.2527   4.8598

          k = 0.1111 0.4491 0.0000 (  8927 PWs)   bands (ev):

   -20.1268 -15.1945 -11.2906  -7.6743  -0.8465   4.1875   4.7730   5.1168

          k = 0.1111 0.4918 0.0000 (  8913 PWs)   bands (ev):

   -19.4656 -16.0782 -11.4587  -7.0464  -1.6890   4.6501   5.1861   6.0489

          k = 0.1111 0.5346 0.0000 (  8904 PWs)   bands (ev):

   -18.7926 -16.8873 -11.5600  -6.5362  -2.3315   4.6150   6.2003   7.0202

          k = 0.1111 0.5774 0.0000 (  8918 PWs)   bands (ev):

   -18.3614 -17.3643 -11.5939  -6.3244  -2.5880   4.5998   7.2134   7.3804

          k = 0.1481 0.2566 0.0000 (  8951 PWs)   bands (ev):

   -22.2924 -11.3312 -10.0996 -10.0743   1.1738   2.0886   3.0799   3.8940

          k = 0.1481 0.2994 0.0000 (  8957 PWs)   bands (ev):

   -21.8777 -12.0694 -10.6415  -9.5919   1.7478   2.2184   2.6645   4.4724

          k = 0.1481 0.3421 0.0000 (  8927 PWs)   bands (ev):

   -21.4025 -12.8919 -11.0975  -9.0470   1.3179   2.4083   3.3208   5.1325

          k = 0.1481 0.3849 0.0000 (  8926 PWs)   bands (ev):

   -20.8691 -13.7653 -11.4661  -8.4481   0.3955   3.1542   4.0595   5.6960

          k = 0.1481 0.4277 0.0000 (  8936 PWs)   bands (ev):

   -20.2806 -14.6553 -11.7548  -7.8105  -0.5195   3.9830   4.8733   5.6478

          k = 0.1481 0.4704 0.0000 (  8914 PWs)   bands (ev):

   -19.6431 -15.5340 -11.9687  -7.1633  -1.3864   4.8863   5.5706   5.7488

          k = 0.1481 0.5132 0.0000 (  8914 PWs)   bands (ev):

   -18.9727 -16.3717 -12.1105  -6.5703  -2.1316   5.4670   5.9128   6.6499

          k = 0.1481 0.5560 0.0000 (  8910 PWs)   bands (ev):

   -18.3526 -17.0772 -12.1812  -6.1733  -2.6065   5.4486   6.9467   7.4329

          k = 0.1852 0.3208 0.0000 (  8943 PWs)   bands (ev):

   -21.4342 -12.6808 -11.2740  -9.0812   1.4110   2.3647   3.2702   5.0960

          k = 0.1852 0.3635 0.0000 (  8939 PWs)   bands (ev):

   -20.9319 -13.3841 -11.8041  -8.5118   0.5662   3.0674   3.9597   5.8028

          k = 0.1852 0.4063 0.0000 (  8934 PWs)   bands (ev):

   -20.3734 -14.1700 -12.2082  -7.8942  -0.2934   3.8540   4.7213   6.5223

          k = 0.1852 0.4491 0.0000 (  8922 PWs)   bands (ev):

   -19.7634 -14.9973 -12.5012  -7.2475  -1.1403   4.7213   5.5364   6.5648

          k = 0.1852 0.4918 0.0000 (  8916 PWs)   bands (ev):

   -19.1112 -15.8235 -12.7010  -6.6109  -1.9270   5.6610   6.3570   6.4975

          k = 0.1852 0.5346 0.0000 (  8898 PWs)   bands (ev):

   -18.4499 -16.5959 -12.8178  -6.0777  -2.5533   6.4032   6.7143   7.0407

          k = 0.1852 0.5774 0.0000 (  8900 PWs)   bands (ev):

   -18.0279 -17.0559 -12.8563  -5.8477  -2.8149   6.4071   7.3135   7.6495

          k = 0.2222 0.3849 0.0000 (  8915 PWs)   bands (ev):

   -20.4045 -13.9349 -12.4350  -7.9225  -0.2120   3.8107   4.6691   6.5545

          k = 0.2222 0.4277 0.0000 (  8931 PWs)   bands (ev):

   -19.8239 -14.5841 -12.9180  -7.2914  -1.0009   4.6354   5.4247   7.3549

          k = 0.2222 0.4704 0.0000 (  8899 PWs)   bands (ev):

   -19.1970 -15.3148 -13.2431  -6.6418  -1.7737   5.5363   6.1634   7.5391

          k = 0.2222 0.5132 0.0000 (  8888 PWs)   bands (ev):

   -18.5401 -16.0674 -13.4402  -6.0270  -2.4737   6.5009   6.7269   7.4793

          k = 0.2222 0.5560 0.0000 (  8889 PWs)   bands (ev):

   -17.9338 -16.7288 -13.5334  -5.5890  -2.9553   6.9672   7.3699   7.5750

          k = 0.2593 0.4491 0.0000 (  8905 PWs)   bands (ev):

   -19.2259 -15.0609 -13.5096  -6.6532  -1.7168   5.4935   6.0949   8.0765

          k = 0.2593 0.4918 0.0000 (  8880 PWs)   bands (ev):

   -18.5898 -15.6423 -13.9123  -6.0065  -2.4175   6.4181   6.5515   8.4570

          k = 0.2593 0.5346 0.0000 (  8885 PWs)   bands (ev):

   -17.9467 -16.2824 -14.1285  -5.4232  -3.0330   6.6965   7.3825   8.3878

          k = 0.2593 0.5774 0.0000 (  8890 PWs)   bands (ev):

   -17.5288 -16.7053 -14.1953  -5.1383  -3.3286   6.7113   8.2333   8.2455

          k = 0.2963 0.5132 0.0000 (  8875 PWs)   bands (ev):

   -17.9587 -16.0410 -14.4130  -5.3662  -3.0572   6.5976   7.3428   8.9560

          k = 0.2963 0.5560 0.0000 (  8877 PWs)   bands (ev):

   -17.3656 -16.5174 -14.6665  -4.8116  -3.6096   6.5419   8.2329   8.8407

          k = 0.3333 0.5774 0.0000 (  8862 PWs)   bands (ev):

   -16.8655 -16.8655 -14.8834  -4.2040  -4.2040   6.4737   8.7803   8.7804

     the Fermi energy is    -4.2040 ev

!    total energy              =     -24.09564666 Ry
     estimated scf accuracy    <          6.9E-12 Ry
     smearing contrib. (-TS)   =      -0.00003096 Ry
     internal energy E=F+TS    =     -24.09561570 Ry

     The total energy is F=E-TS. E is the sum of the following terms:
     one-electron contribution =    -258.66782608 Ry
     hartree contribution      =     130.09536191 Ry
     xc contribution           =      -8.59736514 Ry
     ewald contribution        =     113.07421361 Ry

     convergence has been achieved in   7 iterations

     Forces acting on atoms (cartesian axes, Ry/au):

     atom    1 type  1   force =     0.00000000   -0.00000000    0.00000000
     atom    2 type  1   force =    -0.00000000    0.00000000    0.00000000

     Total force =     0.000000     Total SCF correction =     0.000000


     Computing stress (Cartesian axis) and pressure

          total   stress  (Ry/bohr**3)                   (kbar)     P=        7.94
   0.00008098   0.00000000   0.00000000           11.91        0.00        0.00
   0.00000000   0.00008098   0.00000000            0.00       11.91        0.00
   0.00000000   0.00000000  -0.00000003            0.00        0.00       -0.00


     Writing all to output data dir ./tmp/graphene.save/ :
     XML data file, charge density, pseudopotentials, collected wavefunctions

     init_run     :      0.75s CPU      0.78s WALL (       1 calls)
     electrons    :     15.29s CPU     15.92s WALL (       1 calls)
     forces       :      0.14s CPU      0.15s WALL (       1 calls)
     stress       :      0.54s CPU      0.55s WALL (       1 calls)

     Called by init_run:
     wfcinit      :      0.59s CPU      0.61s WALL (       1 calls)
     potinit      :      0.02s CPU      0.03s WALL (       1 calls)
     hinit0       :      0.02s CPU      0.02s WALL (       1 calls)

     Called by electrons:
     c_bands      :     13.46s CPU     14.00s WALL (       7 calls)
     sum_band     :      1.71s CPU      1.77s WALL (       7 calls)
     v_of_rho     :      0.11s CPU      0.14s WALL (       8 calls)
     mix_rho      :      0.02s CPU      0.03s WALL (       7 calls)

     Called by c_bands:
     init_us_2    :      0.32s CPU      0.34s WALL (    1275 calls)
     cegterg      :     13.06s CPU     13.55s WALL (     525 calls)

     Called by *egterg:
     cdiaghg      :      0.17s CPU      0.18s WALL (    3197 calls)
     h_psi        :     11.46s CPU     11.91s WALL (    3272 calls)
     g_psi        :      0.05s CPU      0.05s WALL (    2672 calls)

     Called by h_psi:
     h_psi:calbec :      0.65s CPU      0.67s WALL (    3272 calls)
     vloc_psi     :     10.31s CPU     10.72s WALL (    3272 calls)
     add_vuspsi   :      0.41s CPU      0.43s WALL (    3272 calls)

     General routines
     calbec       :      1.01s CPU      1.04s WALL (    4547 calls)
     fft          :      0.09s CPU      0.11s WALL (     104 calls)
     ffts         :      0.00s CPU      0.00s WALL (       7 calls)
     fftw         :     10.64s CPU     11.05s WALL (   32908 calls)
     davcio       :      0.13s CPU      0.16s WALL (    1927 calls)

     Parallel routines

     PWSCF        :     16.76s CPU     17.56s WALL


   This run was terminated on:  11:39: 4  25Aug2025            

=------------------------------------------------------------------------------=
   JOB DONE.
=------------------------------------------------------------------------------=
