 argument  1 = CO2.b3lyp_geoptfreq.nw



============================== echo of input deck ==============================
echo

start molecule

title "CO2 | Equilibrium Geometry | B3LYP/6-31G(d,p)"
charge 0

print low

geometry units angstroms print xyz autosym
C     -4.243288   -3.698893    2.201210
O     -3.470945   -3.016444    1.593952
O     -5.015851   -4.381509    2.808045
end

basis
  * library 6-31G**
end

dft
  xc b3lyp
  mult 1
end

task dft optimize
task dft freq
================================================================================


                                         
                                         


             Northwest Computational Chemistry Package (NWChem) 7.0.2
             --------------------------------------------------------


                    Environmental Molecular Sciences Laboratory
                       Pacific Northwest National Laboratory
                                Richland, WA 99352

                              Copyright (c) 1994-2020
                       Pacific Northwest National Laboratory
                            Battelle Memorial Institute

             NWChem is an open-source computational chemistry package
                        distributed under the terms of the
                      Educational Community License (ECL) 2.0
             A copy of the license is included with this distribution
                              in the LICENSE.TXT file

                                  ACKNOWLEDGMENT
                                  --------------

            This software and its documentation were developed at the
            EMSL at Pacific Northwest National Laboratory, a multiprogram
            national laboratory, operated for the U.S. Department of Energy
            by Battelle under Contract Number DE-AC05-76RL01830. Support
            for this work was provided by the Department of Energy Office
            of Biological and Environmental Research, Office of Basic
            Energy Sciences, and the Office of Advanced Scientific Computing.


           Job information
           ---------------

    hostname        = DESKTOP-7OTLCGO
    program         = nwchem
    date            = Tue Aug 26 15:51:44 2025

    compiled        = Sat_Apr_09_17:12:10_2022
    source          = /build/nwchem-f1f4gx/nwchem-7.0.2/build-openmpi
    nwchem branch   = 7.0.2
    nwchem revision = N/A
    ga revision     = 5.8.1
    use scalapack   = T
    input           = CO2.b3lyp_geoptfreq.nw
    prefix          = molecule.
    data base       = ./molecule.db
    status          = startup
    nproc           =        8
    time left       =     -1s



           Memory information
           ------------------

    heap     =   13107194 doubles =    100.0 Mbytes
    stack    =   13107199 doubles =    100.0 Mbytes
    global   =   26214400 doubles =    200.0 Mbytes (distinct from heap & stack)
    total    =   52428793 doubles =    400.0 Mbytes
    verify   = yes
    hardfail = no 


           Directory information
           ---------------------

  0 permanent = .
  0 scratch   = .




                                NWChem Input Module
                                -------------------


                   CO2 | Equilibrium Geometry | B3LYP/6-31G(d,p)
                   ---------------------------------------------

 Scaling coordinates for geometry "geometry" by  1.889725989
 (inverse scale =  0.529177249)


          ------
          auto-z
          ------
  autoz: insufficient variables                     2                    3
     1 autoz failed with cvr_scaling = 1.2 changing to 1.3
  autoz: insufficient variables                     2                    3
     2 autoz failed with cvr_scaling = 1.3 changing to 1.4
  autoz: insufficient variables                     2                    3
     3 autoz failed with cvr_scaling = 1.4 changing to 1.5
  autoz: insufficient variables                     2                    3
     4 autoz failed with cvr_scaling = 1.5 changing to 1.6
  autoz: insufficient variables                     2                    3
     5 autoz failed with cvr_scaling = 1.6 changing to 1.7
  autoz: insufficient variables                     2                    3

 AUTOZ failed to generate good internal coordinates.
 Cartesian coordinates will be used in optimizations.



                             Geometry "geometry" -> ""
                             -------------------------

 Output coordinates in angstroms (scale by  1.889725989 to convert to a.u.)

  No.       Tag          Charge          X              Y              Z
 ---- ---------------- ---------- -------------- -------------- --------------
    1 C                    6.0000     0.00000000     0.00000000     0.00000000
    2 O                    8.0000     0.00000000     0.00000000     1.19626072
    3 O                    8.0000     0.00000000     0.00000000    -1.19626072

      Atomic Mass 
      ----------- 

      C                 12.000000
      O                 15.994910


 Effective nuclear repulsion energy (a.u.)      56.6220113127

            Nuclear Dipole moment (a.u.) 
            ----------------------------
        X                 Y               Z
 ---------------- ---------------- ----------------
     0.0000000000     0.0000000000     0.0000000000

      Symmetry information
      --------------------

 Group name             D4h       
 Group number             28
 Group order              16
 No. of unique centers     2

      Symmetry unique atoms

     1    2


            XYZ format geometry
            -------------------
     3
 geometry
 C                     0.00000000     0.00000000     0.00000000
 O                     0.00000000     0.00000000     1.19626072
 O                     0.00000000     0.00000000    -1.19626072

 ==============================================================================
                                internuclear distances
 ------------------------------------------------------------------------------
       center one      |      center two      | atomic units |  angstroms
 ------------------------------------------------------------------------------
    2 O                |   1 C                |     2.26060  |     1.19626
    3 O                |   1 C                |     2.26060  |     1.19626
 ------------------------------------------------------------------------------
                         number of included internuclear distances:          2
 ==============================================================================



 ==============================================================================
                                 internuclear angles
 ------------------------------------------------------------------------------
        center 1       |       center 2       |       center 3       |  degrees
 ------------------------------------------------------------------------------
    2 O                |   1 C                |   3 O                |   180.00
 ------------------------------------------------------------------------------
                            number of included internuclear angles:          1
 ==============================================================================





 Summary of "ao basis" -> "" (cartesian)
 ------------------------------------------------------------------------------
       Tag                 Description            Shells   Functions and Types
 ---------------- ------------------------------  ------  ---------------------
 *                          6-31G**                   on all atoms 




                           NWChem Geometry Optimization
                           ----------------------------




                   CO2 | Equilibrium Geometry | B3LYP/6-31G(d,p)


 maximum gradient threshold         (gmax) =   0.000450
 rms gradient threshold             (grms) =   0.000300
 maximum cartesian step threshold   (xmax) =   0.001800
 rms cartesian step threshold       (xrms) =   0.001200
 fixed trust radius                (trust) =   0.300000
 maximum step size to saddle      (sadstp) =   0.100000
 energy precision                  (eprec) =   5.0D-06
 maximum number of steps          (nptopt) =   20
 initial hessian option           (inhess) =    0
 line search option               (linopt) =    1
 hessian update option            (modupd) =    1
 saddle point option              (modsad) =    0
 initial eigen-mode to follow     (moddir) =    0
 initial variable to follow       (vardir) =    0
 follow first negative mode     (firstneg) =    T
 apply conjugacy                    (opcg) =    F
 source of zmatrix                         =           


          -------------------
          Energy Minimization
          -------------------


 Using old Hessian from previous optimization

          --------
          Step   0
          --------

                                 NWChem DFT Module
                                 -----------------


                   CO2 | Equilibrium Geometry | B3LYP/6-31G(d,p)


                      Basis "ao basis" -> "ao basis" (cartesian)
                      -----
  C (Carbon)
  ----------
            Exponent  Coefficients 
       -------------- ---------------------------------------------------------
  1 S  3.04752490E+03  0.001835
  1 S  4.57369510E+02  0.014037
  1 S  1.03948690E+02  0.068843
  1 S  2.92101550E+01  0.232184
  1 S  9.28666300E+00  0.467941
  1 S  3.16392700E+00  0.362312

  2 S  7.86827240E+00 -0.119332
  2 S  1.88128850E+00 -0.160854
  2 S  5.44249300E-01  1.143456

  3 P  7.86827240E+00  0.068999
  3 P  1.88128850E+00  0.316424
  3 P  5.44249300E-01  0.744308

  4 S  1.68714400E-01  1.000000

  5 P  1.68714400E-01  1.000000

  6 D  8.00000000E-01  1.000000

  O (Oxygen)
  ----------
            Exponent  Coefficients 
       -------------- ---------------------------------------------------------
  1 S  5.48467170E+03  0.001831
  1 S  8.25234950E+02  0.013950
  1 S  1.88046960E+02  0.068445
  1 S  5.29645000E+01  0.232714
  1 S  1.68975700E+01  0.470193
  1 S  5.79963530E+00  0.358521

  2 S  1.55396160E+01 -0.110778
  2 S  3.59993360E+00 -0.148026
  2 S  1.01376180E+00  1.130767

  3 P  1.55396160E+01  0.070874
  3 P  3.59993360E+00  0.339753
  3 P  1.01376180E+00  0.727159

  4 S  2.70005800E-01  1.000000

  5 P  2.70005800E-01  1.000000

  6 D  8.00000000E-01  1.000000



 Summary of "ao basis" -> "ao basis" (cartesian)
 ------------------------------------------------------------------------------
       Tag                 Description            Shells   Functions and Types
 ---------------- ------------------------------  ------  ---------------------
 C                          6-31G**                  6       15   3s2p1d
 O                          6-31G**                  6       15   3s2p1d



  Caching 1-el integrals 
   Time after variat. SCF:      0.1
   Time prior to 1st pass:      0.1


         Total DFT energy =     -188.578133434492
      One electron energy =     -369.411747779724
           Coulomb energy =      146.689317039557
    Exchange-Corr. energy =      -22.477714007010
 Nuclear repulsion energy =       56.622011312685

 Numeric. integr. density =       22.000000239262

     Total iterative time =      0.1s



                  Occupations of the irreducible representations
                  ----------------------------------------------

                     irrep           alpha         beta
                     --------     --------     --------
                     a1g               4.0          4.0
                     a1u               0.0          0.0
                     a2g               0.0          0.0
                     a2u               3.0          3.0
                     b1g               0.0          0.0
                     b1u               0.0          0.0
                     b2g               0.0          0.0
                     b2u               0.0          0.0
                     eg                2.0          2.0
                     eu                2.0          2.0



                         DFT ENERGY GRADIENTS

    atom               coordinates                        gradient
                 x          y          z           x          y          z
   1 C       0.000000   0.000000   0.000000    0.000000   0.000000  -0.000000
   2 O       0.000000   0.000000   2.260605    0.000000   0.000000   0.053071
   3 O       0.000000   0.000000  -2.260605    0.000000   0.000000  -0.053071


@ Step       Energy      Delta E   Gmax     Grms     Xrms     Xmax   Walltime
@ ---- ---------------- -------- -------- -------- -------- -------- --------
@    0    -188.57813343  0.0D+00  0.05307  0.02502  0.00000  0.00000      0.3
                                                                    


                                 NWChem DFT Module
                                 -----------------


                   CO2 | Equilibrium Geometry | B3LYP/6-31G(d,p)



  Caching 1-el integrals 
   Time after variat. SCF:      0.3
   Time prior to 1st pass:      0.3


         Total DFT energy =     -188.580911891569
      One electron energy =     -371.725739474360
           Coulomb energy =      147.864837064217
    Exchange-Corr. energy =      -22.526676282433
 Nuclear repulsion energy =       57.806666801007

 Numeric. integr. density =       21.999999706665

     Total iterative time =      0.1s



                  Occupations of the irreducible representations
                  ----------------------------------------------

                     irrep           alpha         beta
                     --------     --------     --------
                     a1g               4.0          4.0
                     a1u               0.0          0.0
                     a2g               0.0          0.0
                     a2u               3.0          3.0
                     b1g               0.0          0.0
                     b1u               0.0          0.0
                     b2g               0.0          0.0
                     b2u               0.0          0.0
                     eg                2.0          2.0
                     eu                2.0          2.0

 Line search: 
     step= 1.00 grad=-4.9D-03 hess= 2.1D-03 energy=   -188.580912 mode=downhill
 new step= 1.15                   predicted energy=   -188.580960

          --------
          Step   1
          --------

                                 NWChem DFT Module
                                 -----------------


                   CO2 | Equilibrium Geometry | B3LYP/6-31G(d,p)



  Caching 1-el integrals 
   Time after variat. SCF:      0.4
   Time prior to 1st pass:      0.4


         Total DFT energy =     -188.580934128725
      One electron energy =     -372.079306823168
           Coulomb energy =      148.044492163280
    Exchange-Corr. energy =      -22.534213212288
 Nuclear repulsion energy =       57.988093743450

 Numeric. integr. density =       21.999999684592

     Total iterative time =      0.1s



                  Occupations of the irreducible representations
                  ----------------------------------------------

                     irrep           alpha         beta
                     --------     --------     --------
                     a1g               4.0          4.0
                     a1u               0.0          0.0
                     a2g               0.0          0.0
                     a2u               3.0          3.0
                     b1g               0.0          0.0
                     b1u               0.0          0.0
                     b2g               0.0          0.0
                     b2u               0.0          0.0
                     eg                2.0          2.0
                     eu                2.0          2.0



                         DFT ENERGY GRADIENTS

    atom               coordinates                        gradient
                 x          y          z           x          y          z
   1 C       0.000000   0.000000   0.000000    0.000000   0.000000   0.000000
   2 O       0.000000   0.000000   2.207350    0.000000   0.000000  -0.002337
   3 O       0.000000   0.000000  -2.207350    0.000000  -0.000000   0.002337


  Step       Energy      Delta E   Gmax     Grms     Xrms     Xmax   Walltime
  ---- ---------------- -------- -------- -------- -------- -------- --------
@    1    -188.58093413 -2.8D-03  0.00234  0.00110  0.02510  0.05326      0.6
                                                                    


                                 NWChem DFT Module
                                 -----------------


                   CO2 | Equilibrium Geometry | B3LYP/6-31G(d,p)



  Caching 1-el integrals 
   Time after variat. SCF:      0.6
   Time prior to 1st pass:      0.6


         Total DFT energy =     -188.580938833235
      One electron energy =     -371.964608904837
           Coulomb energy =      147.986253378851
    Exchange-Corr. energy =      -22.531734983033
 Nuclear repulsion energy =       57.929151675784

 Numeric. integr. density =       21.999999689671

     Total iterative time =      0.1s



                  Occupations of the irreducible representations
                  ----------------------------------------------

                     irrep           alpha         beta
                     --------     --------     --------
                     a1g               4.0          4.0
                     a1u               0.0          0.0
                     a2g               0.0          0.0
                     a2u               3.0          3.0
                     b1g               0.0          0.0
                     b1u               0.0          0.0
                     b2g               0.0          0.0
                     b2u               0.0          0.0
                     eg                2.0          2.0
                     eu                2.0          2.0

 Line search: 
     step= 1.00 grad=-1.0D-05 hess= 5.8D-06 energy=   -188.580939 mode=accept  
 new step= 1.00                   predicted energy=   -188.580939

          --------
          Step   2
          --------

                                 NWChem DFT Module
                                 -----------------


                   CO2 | Equilibrium Geometry | B3LYP/6-31G(d,p)




  The DFT is already converged 

         Total DFT energy =   -188.580938833235



                         DFT ENERGY GRADIENTS

    atom               coordinates                        gradient
                 x          y          z           x          y          z
   1 C       0.000000   0.000000   0.000000    0.000000   0.000000   0.000000
   2 O       0.000000   0.000000   2.209596    0.000000   0.000000   0.000234
   3 O       0.000000   0.000000  -2.209596    0.000000  -0.000000  -0.000234


  Step       Energy      Delta E   Gmax     Grms     Xrms     Xmax   Walltime
  ---- ---------------- -------- -------- -------- -------- -------- --------
@    2    -188.58093883 -4.7D-06  0.00023  0.00011  0.00106  0.00225      0.8
                                     ok       ok       ok           


                                 NWChem DFT Module
                                 -----------------


                   CO2 | Equilibrium Geometry | B3LYP/6-31G(d,p)



  Caching 1-el integrals 
   Time after variat. SCF:      0.8
   Time prior to 1st pass:      0.8


         Total DFT energy =     -188.580938898227
      One electron energy =     -371.975409835332
           Coulomb energy =      147.992007085921
    Exchange-Corr. energy =      -22.532054819767
 Nuclear repulsion energy =       57.934518670951

 Numeric. integr. density =       21.999999689087

     Total iterative time =      0.1s



                  Occupations of the irreducible representations
                  ----------------------------------------------

                     irrep           alpha         beta
                     --------     --------     --------
                     a1g               4.0          4.0
                     a1u               0.0          0.0
                     a2g               0.0          0.0
                     a2u               3.0          3.0
                     b1g               0.0          0.0
                     b1u               0.0          0.0
                     b2g               0.0          0.0
                     b2u               0.0          0.0
                     eg                2.0          2.0
                     eu                2.0          2.0

 Line search: 
     step= 1.00 grad=-9.6D-08 hess= 3.1D-08 energy=   -188.580939 mode=accept  
 new step= 1.00                   predicted energy=   -188.580939

          --------
          Step   3
          --------

                                 NWChem DFT Module
                                 -----------------


                   CO2 | Equilibrium Geometry | B3LYP/6-31G(d,p)




  The DFT is already converged 

         Total DFT energy =   -188.580938898227



                         DFT ENERGY GRADIENTS

    atom               coordinates                        gradient
                 x          y          z           x          y          z
   1 C       0.000000   0.000000   0.000000    0.000000   0.000000   0.000000
   2 O       0.000000   0.000000   2.209391    0.000000   0.000000   0.000000
   3 O       0.000000   0.000000  -2.209391    0.000000   0.000000  -0.000000


  Step       Energy      Delta E   Gmax     Grms     Xrms     Xmax   Walltime
  ---- ---------------- -------- -------- -------- -------- -------- --------
@    3    -188.58093890 -6.5D-08  0.00000  0.00000  0.00010  0.00020      0.9
                                     ok       ok       ok       ok  


      ----------------------
      Optimization converged
      ----------------------


  Step       Energy      Delta E   Gmax     Grms     Xrms     Xmax   Walltime
  ---- ---------------- -------- -------- -------- -------- -------- --------
@    3    -188.58093890 -6.5D-08  0.00000  0.00000  0.00010  0.00020      0.9
                                     ok       ok       ok       ok  



                         Geometry "geometry" -> "geometry"
                         ---------------------------------

 Output coordinates in angstroms (scale by  1.889725989 to convert to a.u.)

  No.       Tag          Charge          X              Y              Z
 ---- ---------------- ---------- -------------- -------------- --------------
    1 C                    6.0000     0.00000000     0.00000000     0.00000000
    2 O                    8.0000     0.00000000     0.00000000     1.16915941
    3 O                    8.0000     0.00000000     0.00000000    -1.16915941

      Atomic Mass 
      ----------- 

      C                 12.000000
      O                 15.994910


 Effective nuclear repulsion energy (a.u.)      57.9345186710

            Nuclear Dipole moment (a.u.) 
            ----------------------------
        X                 Y               Z
 ---------------- ---------------- ----------------
     0.0000000000     0.0000000000     0.0000000000

      Symmetry information
      --------------------

 Group name             D4h       
 Group number             28
 Group order              16
 No. of unique centers     2

      Symmetry unique atoms

     1    2



                                NWChem Input Module
                                -------------------




                   NWChem Nuclear Hessian and Frequency Analysis
                   ---------------------------------------------



                              NWChem Analytic Hessian
                              -----------------------


                                 NWChem DFT Module
                                 -----------------


                   CO2 | Equilibrium Geometry | B3LYP/6-31G(d,p)



  Caching 1-el integrals 
   Time after variat. SCF:      0.9
   Time prior to 1st pass:      0.9


         Total DFT energy =     -188.580939236330
      One electron energy =     -371.975099251211
           Coulomb energy =      147.991664658822
    Exchange-Corr. energy =      -22.532023314891
 Nuclear repulsion energy =       57.934518670951

 Numeric. integr. density =       22.000000023064

     Total iterative time =      0.1s


  stpr_wrt_fd_from_sq: overwrite of existing file:./molecule.hess
 stpr_wrt_fd_dipole: overwrite of existing file./molecule.fd_ddipole

 HESSIAN: the one electron contributions are done in       0.0s


 HESSIAN: 2-el 1st deriv. term done in                     0.0s


 HESSIAN: 2-el 2nd deriv. term done in                     0.1s

  stpr_wrt_fd_from_sq: overwrite of existing file:./molecule.hess
 stpr_wrt_fd_dipole: overwrite of existing file./molecule.fd_ddipole

 HESSIAN: the two electron contributions are done in       0.6s

 SCF residual:    1.8750910258184212E-005
 HESSIAN: the CPHF contributions are done
  stpr_wrt_fd_from_sq: overwrite of existing file:./molecule.hess
 stpr_wrt_fd_dipole: overwrite of existing file./molecule.fd_ddipole

 Derivative Dipole

  
  
 X vector of derivative dipole (au) [debye/angstrom]
 d_dipole_x/<atom=   1,x> =     0.5244     [    2.5187]
 d_dipole_x/<atom=   1,y> =    -0.0000     [   -0.0000]
 d_dipole_x/<atom=   1,z> =    -0.0000     [   -0.0000]
 d_dipole_x/<atom=   2,x> =    -0.2622     [   -1.2593]
 d_dipole_x/<atom=   2,y> =     0.0000     [    0.0000]
 d_dipole_x/<atom=   2,z> =     0.0000     [    0.0000]
 d_dipole_x/<atom=   3,x> =    -0.2622     [   -1.2593]
 d_dipole_x/<atom=   3,y> =     0.0000     [    0.0000]
 d_dipole_x/<atom=   3,z> =     0.0000     [    0.0000]
  
 Y vector of derivative dipole (au) [debye/angstrom]
 d_dipole_y/<atom=   1,x> =    -0.0000     [   -0.0000]
 d_dipole_y/<atom=   1,y> =     0.5244     [    2.5187]
 d_dipole_y/<atom=   1,z> =    -0.0000     [   -0.0000]
 d_dipole_y/<atom=   2,x> =     0.0000     [    0.0000]
 d_dipole_y/<atom=   2,y> =    -0.2622     [   -1.2593]
 d_dipole_y/<atom=   2,z> =     0.0000     [    0.0000]
 d_dipole_y/<atom=   3,x> =     0.0000     [    0.0000]
 d_dipole_y/<atom=   3,y> =    -0.2622     [   -1.2593]
 d_dipole_y/<atom=   3,z> =     0.0000     [    0.0000]
  
 Z vector of derivative dipole (au) [debye/angstrom]
 d_dipole_z/<atom=   1,x> =    -0.0000     [   -0.0000]
 d_dipole_z/<atom=   1,y> =    -0.0000     [   -0.0000]
 d_dipole_z/<atom=   1,z> =     2.2104     [   10.6169]
 d_dipole_z/<atom=   2,x> =     0.0000     [    0.0000]
 d_dipole_z/<atom=   2,y> =    -0.0000     [   -0.0000]
 d_dipole_z/<atom=   2,z> =    -1.1052     [   -5.3084]
 d_dipole_z/<atom=   3,x> =     0.0000     [    0.0000]
 d_dipole_z/<atom=   3,y> =     0.0000     [    0.0000]
 d_dipole_z/<atom=   3,z> =    -1.1052     [   -5.3084]
  
  
 HESSIAN: the Hessian is done


  Vibrational analysis via the FX method 

  See chapter 2 in "Molecular Vibrations" by Wilson, Decius and Cross

  Vib: Default input used 

  Nuclear Hessian passed symmetry test 



 ---------------------------- Atom information ----------------------------
     atom    #        X              Y              Z            mass
 --------------------------------------------------------------------------
    C        1  0.0000000D+00  0.0000000D+00  0.0000000D+00  1.2000000D+01
    O        2  0.0000000D+00  0.0000000D+00  2.2093909D+00  1.5994910D+01
    O        3  0.0000000D+00  0.0000000D+00 -2.2093909D+00  1.5994910D+01
 --------------------------------------------------------------------------




          ----------------------------------------------------
          MASS-WEIGHTED NUCLEAR HESSIAN (Hartree/Bohr/Bohr/Kamu)
          ----------------------------------------------------


               1            2            3            4            5            6            7            8            9
   ----- ----- ----- ----- -----
    1    1.12735D+01
    2    4.79527D-13  1.12735D+01
    3    9.06831D-09 -4.71213D-09  1.63331D+02
    4   -4.88234D+00 -1.17598D-13 -2.26244D-10  2.11394D+00
    5    8.70059D-14 -4.88234D+00  4.13537D-10  2.12122D-12  2.11394D+00
    6   -3.87170D-09  1.81200D-09 -7.07356D+01  1.68657D-09 -1.43561D-09  6.62503D+01
    7   -4.88234D+00 -1.31575D-13 -2.20148D-10  2.11444D+00  7.24166D-14  9.56513D-11  2.11394D+00
    8   -2.64906D-14 -4.88234D+00  8.70060D-10  2.84995D-14  2.11444D+00 -3.87427D-10 -3.94169D-13  2.11394D+00
    9   -3.98194D-09  1.87999D-09 -7.07356D+01  1.73341D-09 -1.59972D-09 -4.98215D+00  1.71567D-09 -5.37330D-10  6.62503D+01



          -------------------------------------------------
          NORMAL MODE EIGENVECTORS IN CARTESIAN COORDINATES
          -------------------------------------------------
                 (Frequencies expressed in cm-1)

                    1           2           3           4           5           6
 
 Frequency         -3.62       -3.62       -3.16       -3.16       -3.04      640.03
 
           1    -0.00004    -0.00000     0.15077    -0.00000     0.00001     0.00000
           2    -0.00000     0.00004     0.00000    -0.15077    -0.00001     0.24617
           3     0.00000     0.00000    -0.00001    -0.00001     0.15077     0.00000
           4    -0.17685    -0.00000     0.15072    -0.00000     0.00001     0.00000
           5    -0.00000     0.17685     0.00000    -0.15072    -0.00001    -0.09234
           6     0.00000     0.00000    -0.00001    -0.00001     0.15077     0.00000
           7     0.17676    -0.00000     0.15083    -0.00000     0.00001     0.00000
           8    -0.00000    -0.17676    -0.00000    -0.15083    -0.00000    -0.09234
           9     0.00000     0.00000    -0.00001    -0.00001     0.15077     0.00000

                    7           8           9
 
 Frequency        640.03     1371.97     2436.17
 
           1    -0.24617     0.00000     0.00000
           2     0.00000    -0.00000    -0.00000
           3     0.00000    -0.00000     0.24617
           4     0.09234    -0.00000    -0.00000
           5     0.00000     0.00000     0.00000
           6     0.00000     0.17680    -0.09234
           7     0.09234    -0.00000    -0.00000
           8     0.00000     0.00000     0.00000
           9     0.00000    -0.17680    -0.09234
  
  
 ----------------------------------------------------------------------------
 Normal Eigenvalue ||                 Infra Red Intensities
  Mode   [cm**-1]  || [atomic units] [(debye/angs)**2] [(KM/mol)] [arbitrary]
 ------ ---------- || -------------- ----------------- ---------- -----------
    1       -3.615 ||    0.000000           0.000         0.000       0.000
    2       -3.615 ||    0.000000           0.000         0.000       0.000
    3       -3.161 ||    0.000000           0.000         0.000       0.000
    4       -3.161 ||    0.000000           0.000         0.000       0.000
    5       -3.038 ||    0.000000           0.000         0.000       0.000
    6      640.032 ||    0.031510           0.727        30.718       4.553
    7      640.032 ||    0.031510           0.727        30.718       4.553
    8     1371.965 ||    0.000000           0.000         0.000       0.000
    9     2436.174 ||    0.559872          12.917       545.791      80.894
 ----------------------------------------------------------------------------





        Vibrational analysis via the FX method 
  --- with translations and rotations projected out ---
  --- via the Eckart algorithm                      ---
 Dependent rotation vector no.                    3
  found in ECKART; assuming linear geometry

          --------------------------------------------------------
          MASS-WEIGHTED PROJECTED HESSIAN (Hartree/Bohr/Bohr/Kamu)
          --------------------------------------------------------


               1            2            3            4            5            6            7            8            9
   ----- ----- ----- ----- -----
    1    1.12733D+01
    2    5.32249D-13  1.12733D+01
    3    6.93457D-09 -3.95731D-09  1.63331D+02
    4   -4.88228D+00 -2.30507D-13 -3.00324D-09  2.11443D+00
    5   -2.30507D-13 -4.88228D+00  1.71384D-09  9.98284D-14  2.11443D+00
    6   -2.64575D-09  1.63075D-09 -7.07355D+01  1.14583D-09 -7.06248D-10  6.62505D+01
    7   -4.88228D+00 -2.30507D-13 -3.00324D-09  2.11443D+00  9.98284D-14  1.14583D-09  2.11443D+00
    8   -2.30507D-13 -4.88228D+00  1.71384D-09  9.98284D-14  2.11443D+00 -7.06248D-10  9.98284D-14  2.11443D+00
    9   -3.36072D-09  1.79692D-09 -7.07355D+01  1.45546D-09 -7.78214D-10 -4.98195D+00  1.45546D-09 -7.78214D-10  6.62505D+01

 center of mass
 --------------
 x =   0.00000000 y =   0.00000000 z =   0.00000000

 moments of inertia (a.u.)
 ------------------
         156.155372065167           0.000000000000           0.000000000000
           0.000000000000         156.155372065167           0.000000000000
           0.000000000000           0.000000000000           0.000000000000

 Rotational Constants
 --------------------
 A=   0.000000 cm-1  (  0.000000 K)
 B=   0.385515 cm-1  (  0.554657 K)
 C=   0.385515 cm-1  (  0.554657 K)


 Temperature                      =   298.15K
 frequency scaling parameter      =   1.0000


 Linear Molecule                   

 Zero-Point correction to Energy  =    7.270 kcal/mol  (  0.011586 au)
 Thermal correction to Energy     =    8.931 kcal/mol  (  0.014232 au)
 Thermal correction to Enthalpy   =    9.523 kcal/mol  (  0.015176 au)

 Total Entropy                    =   51.142 cal/mol-K
   - Translational                =   37.253 cal/mol-K (mol. weight =  43.9898)
   - Rotational                   =   13.098 cal/mol-K (symmetry #  =        2)
   - Vibrational                  =    0.791 cal/mol-K

 Cv (constant volume heat capacity) =    6.980 cal/mol-K
   - Translational                  =    2.979 cal/mol-K
   - Rotational                     =    1.986 cal/mol-K
   - Vibrational                    =    2.014 cal/mol-K



          -------------------------------------------------
          NORMAL MODE EIGENVECTORS IN CARTESIAN COORDINATES
          -------------------------------------------------
             (Projected Frequencies expressed in cm-1)

                    1           2           3           4           5           6
 
 P.Frequency       -0.00       -0.00       -0.00       -0.00       -0.00      640.03
 
           1     0.00000     0.09783     0.00000     0.00000     0.11472    -0.00074
           2     0.00000     0.00000     0.11472     0.09783     0.00000     0.24617
           3     0.15077     0.00000     0.00000     0.00000     0.00000     0.00000
           4     0.00000    -0.03670     0.00000     0.00000     0.22945     0.00028
           5     0.00000     0.00000     0.22945    -0.03670     0.00000    -0.09234
           6     0.15077     0.00000     0.00000     0.00000     0.00000    -0.00000
           7     0.00000     0.23236     0.00000     0.00000     0.00000     0.00028
           8     0.00000     0.00000     0.00000     0.23236     0.00000    -0.09234
           9     0.15077     0.00000     0.00000     0.00000     0.00000    -0.00000

                    7           8           9
 
 P.Frequency      640.03     1371.97     2436.17
 
           1    -0.24617     0.00000     0.00000
           2    -0.00074    -0.00000    -0.00000
           3     0.00000    -0.00000     0.24617
           4     0.09234    -0.00000    -0.00000
           5     0.00028     0.00000     0.00000
           6    -0.00000     0.17680    -0.09234
           7     0.09234    -0.00000    -0.00000
           8     0.00028     0.00000     0.00000
           9    -0.00000    -0.17680    -0.09234
  
  
 ----------------------------------------------------------------------------
 Normal Eigenvalue ||           Projected Infra Red Intensities
  Mode   [cm**-1]  || [atomic units] [(debye/angs)**2] [(KM/mol)] [arbitrary]
 ------ ---------- || -------------- ----------------- ---------- -----------
    1       -0.000 ||    0.000000           0.000         0.000       0.000
    2       -0.000 ||    0.000000           0.000         0.000       0.000
    3       -0.000 ||    0.000000           0.000         0.000       0.000
    4       -0.000 ||    0.000000           0.000         0.000       0.000
    5       -0.000 ||    0.000000           0.000         0.000       0.000
    6      640.031 ||    0.031510           0.727        30.718       4.553
    7      640.031 ||    0.031510           0.727        30.718       4.553
    8     1371.965 ||    0.000000           0.000         0.000       0.000
    9     2436.174 ||    0.559872          12.917       545.791      80.894
 ----------------------------------------------------------------------------



 vib:animation  F


                                NWChem Input Module
                                -------------------




                                     CITATION
                                     --------
                Please cite the following reference when publishing
                           results obtained with NWChem:

          E. Aprà, E. J. Bylaska, W. A. de Jong, N. Govind, K. Kowalski,
       T. P. Straatsma, M. Valiev, H. J. J. van Dam, Y. Alexeev, J. Anchell,
       V. Anisimov, F. W. Aquino, R. Atta-Fynn, J. Autschbach, N. P. Bauman,
     J. C. Becca, D. E. Bernholdt, K. Bhaskaran-Nair, S. Bogatko, P. Borowski,
        J. Boschen, J. Brabec, A. Bruner, E. Cauët, Y. Chen, G. N. Chuev,
      C. J. Cramer, J. Daily, M. J. O. Deegan, T. H. Dunning Jr., M. Dupuis,
   K. G. Dyall, G. I. Fann, S. A. Fischer, A. Fonari, H. Früchtl, L. Gagliardi,
      J. Garza, N. Gawande, S. Ghosh, K. Glaesemann, A. W. Götz, J. Hammond,
       V. Helms, E. D. Hermes, K. Hirao, S. Hirata, M. Jacquelin, L. Jensen,
   B. G. Johnson, H. Jónsson, R. A. Kendall, M. Klemm, R. Kobayashi, V. Konkov,
      S. Krishnamoorthy, M. Krishnan, Z. Lin, R. D. Lins, R. J. Littlefield,
      A. J. Logsdail, K. Lopata, W. Ma, A. V. Marenich, J. Martin del Campo,
   D. Mejia-Rodriguez, J. E. Moore, J. M. Mullin, T. Nakajima, D. R. Nascimento,
    J. A. Nichols, P. J. Nichols, J. Nieplocha, A. Otero-de-la-Roza, B. Palmer,
    A. Panyala, T. Pirojsirikul, B. Peng, R. Peverati, J. Pittner, L. Pollack,
   R. M. Richard, P. Sadayappan, G. C. Schatz, W. A. Shelton, D. W. Silverstein,
   D. M. A. Smith, T. A. Soares, D. Song, M. Swart, H. L. Taylor, G. S. Thomas,
            V. Tipparaju, D. G. Truhlar, K. Tsemekhman, T. Van Voorhis,
     Á. Vázquez-Mayagoitia, P. Verma, O. Villa, A. Vishnu, K. D. Vogiatzis,
        D. Wang, J. H. Weare, M. J. Williamson, T. L. Windus, K. Woliński,
        A. T. Wong, Q. Wu, C. Yang, Q. Yu, M. Zacharias, Z. Zhang, Y. Zhao,
                                and R. J. Harrison
                        "NWChem: Past, present, and future
                         J. Chem. Phys. 152, 184102 (2020)
                               doi:10.1063/5.0004997

                                      AUTHORS
                                      -------
     E. Apra, E. J. Bylaska, N. Govind, K. Kowalski, M. Valiev, W. A. de Jong,
      T. P. Straatsma, H. J. J. van Dam, D. Wang, T. L. Windus, N. P. Bauman,
       A. Panyala, J. Hammond, J. Autschbach, K. Bhaskaran-Nair, J. Brabec,
    K. Lopata, S. A. Fischer, S. Krishnamoorthy, M. Jacquelin, W. Ma, M. Klemm,
       O. Villa, Y. Chen, V. Anisimov, F. Aquino, S. Hirata, M. T. Hackler,
           Eric Hermes, L. Jensen, J. E. Moore, J. C. Becca, V. Konjkov,
            D. Mejia-Rodriguez, T. Risthaus, M. Malagoli, A. Marenich,
   A. Otero-de-la-Roza, J. Mullin, P. Nichols, R. Peverati, J. Pittner, Y. Zhao,
        P.-D. Fan, A. Fonari, M. J. Williamson, R. J. Harrison, J. R. Rehr,
      M. Dupuis, D. Silverstein, D. M. A. Smith, J. Nieplocha, V. Tipparaju,
      M. Krishnan, B. E. Van Kuiken, A. Vazquez-Mayagoitia, M. Swart, Q. Wu,
   T. Van Voorhis, A. A. Auer, M. Nooijen, L. D. Crosby, E. Brown, G. Cisneros,
     G. I. Fann, H. Fruchtl, J. Garza, K. Hirao, R. A. Kendall, J. A. Nichols,
       K. Tsemekhman, K. Wolinski, J. Anchell, D. E. Bernholdt, P. Borowski,
       T. Clark, D. Clerc, H. Dachsel, M. J. O. Deegan, K. Dyall, D. Elwood,
      E. Glendening, M. Gutowski, A. C. Hess, J. Jaffe, B. G. Johnson, J. Ju,
        R. Kobayashi, R. Kutteh, Z. Lin, R. Littlefield, X. Long, B. Meng,
      T. Nakajima, S. Niu, L. Pollack, M. Rosing, K. Glaesemann, G. Sandrone,
      M. Stave, H. Taylor, G. Thomas, J. H. van Lenthe, A. T. Wong, Z. Zhang.

 Total times  cpu:        3.5s     wall:        3.9s
